115
Lattice="13.75323 0.0 0.0 0.0 13.75323 0.0 0.0 0.0 23.89" Properties=species:S:1:pos:R:3 entry_id=7 rank=0 energy=-569.7075805664062 parent_id=6 pbc="T T F"
Pd       0.00000000       0.00000000      10.00000000
Pd       2.75064538       0.00000000      10.00000000
Pd       5.50129076       0.00000000      10.00000000
Pd       8.25193614       0.00000000      10.00000000
Pd      11.00258152       0.00000000      10.00000000
Pd       0.00000000       2.75064538      10.00000000
Pd       2.75064538       2.75064538      10.00000000
Pd       5.50129076       2.75064538      10.00000000
Pd       8.25193614       2.75064538      10.00000000
Pd      11.00258152       2.75064538      10.00000000
Pd       0.00000000       5.50129076      10.00000000
Pd       2.75064538       5.50129076      10.00000000
Pd       5.50129076       5.50129076      10.00000000
Pd       8.25193614       5.50129076      10.00000000
Pd      11.00258152       5.50129076      10.00000000
Pd       0.00000000       8.25193614      10.00000000
Pd       2.75064538       8.25193614      10.00000000
Pd       5.50129076       8.25193614      10.00000000
Pd       8.25193614       8.25193614      10.00000000
Pd      11.00258152       8.25193614      10.00000000
Pd       0.00000000      11.00258152      10.00000000
Pd       2.75064538      11.00258152      10.00000000
Pd       5.50129076      11.00258152      10.00000000
Pd       8.25193614      11.00258152      10.00000000
Pd      11.00258152      11.00258152      10.00000000
Pd       1.41225924       1.40290086      11.97889961
Pd       4.13385995       1.37474455      11.97118383
Pd       6.84370361       1.35419449      12.02448925
Pd       9.57512057       1.39592898      11.89594876
Pd      12.38684272       1.37174114      11.92044161
Pd       1.38237560       4.14901508      11.96820174
Pd       4.10742500       4.12944881      12.00748125
Pd       6.82718762       4.09568972      12.03777437
Pd       9.56728621       4.13975942      11.94281254
Pd      12.36578195       4.13265160      11.93417299
Pd       1.37110082       6.89256210      11.94010419
Pd       4.13935064       6.87026939      11.96482277
Pd       6.87097415       6.85831372      11.95140951
Pd       9.64205429       6.82915781      11.94515418
Pd      12.39111484       6.85622887      11.94896407
Pd       1.35718868       9.67244936      11.96574545
Pd       4.11777592       9.66324146      11.95099537
Pd       6.89476706       9.64088005      11.95142944
Pd       9.64982872       9.59779534      11.89439304
Pd      12.42487279       9.60955999      11.94161946
Pd       1.39206812      12.42005600      11.96808633
Pd       4.12397821      12.40144086      12.00482778
Pd       6.86816975      12.39901143      11.97280504
Pd       9.63028672      12.36702810      11.91406436
Pd      12.43867114      12.33918308      11.98087124
Pd       0.12400946       0.03393758      13.95043714
Pd       2.89840071       0.06360087      14.09533252
Pd       5.71441224      13.61655569      14.09720930
Pd       8.43918131      13.71528213      14.13734417
Pd      11.16141872      13.67127776      13.97104899
Pd      13.64673005       2.77356265      13.86837121
Pd       2.55470830       2.93276544      14.07573149
Pd       5.38453656       2.57868667      14.08833189
Pd       8.11791341       2.78981808      13.97927995
Pd      10.94738261       2.62685392      13.93622354
Pd       0.03471846       5.56557558      13.92034926
Pd       2.70944656       5.67774274      13.98101492
Pd       5.39922260       5.53284654      14.06974546
Pd       8.38645396       5.51559432      13.98455876
Pd      11.10470489       5.46704004      14.05714750
Pd      13.75164230       8.34010920      13.95147034
Pd       2.68025702       8.37273050      13.98141902
Pd       5.37846231       8.23520844      13.88010668
Pd       8.38079098       8.30090926      13.93482721
Pd      11.04789662       8.19300474      13.93567149
Pd      13.11905291      11.85391440      15.65420410
Pd       2.61833148      11.11510428      13.95017737
Pd       5.47625989      10.93256814      13.91559670
Pd       8.22392664      11.02110428      13.90840503
Pd      11.10049710      10.87358755      13.90040786
Pd      12.21657461       6.74820729      16.44986133
Pd       8.92532421       9.36170301      17.47962312
Pd       1.88921305      12.84458446      16.54003945
Pd       1.19395732       6.76483586      16.23830945
Pd      11.95967959       9.47668530      16.34839040
Pd       7.41491065       1.81340915      17.88137583
Pd       4.90678964       0.94317557      16.64622796
Pd       5.98502408       9.99887322      16.55195637
Pd       4.36163244      12.08935460      15.97093498
Pd       9.69395564      11.99463834      15.98281597
Pd      13.57510103       4.25249124      16.24185947
Pd       3.26104563       4.48421906      16.31013467
Pd      10.07832183       3.88592164      16.64635915
Pd       2.74897307       9.89353285      16.35877280
Pd       7.02418579       7.08225493      16.79218967
Pd       6.94752598      12.68887824      16.77480294
Pd       9.60887797       7.10068362      15.98415687
Pd       6.77996809       3.93447076      16.60227071
Pd       0.93164622       1.65401247      15.95723850
Pd       3.99304150       7.16114153      16.04181770
O        8.38297001       3.54547187      17.67797490
O       10.48824850      10.45641681      17.14395891
O       11.45151449      12.89335094      15.84659118
O       10.01584323       1.97219420      15.87582481
O        8.70660925       1.55309261      15.57146282
O        4.31750989       8.93264846      16.99603248
O        3.80932619       1.61533784      15.14488943
O        2.02855929       1.65596626      17.61743623
O        7.80896477      11.06292068      16.00737898
O        1.27451302      11.14112140      15.66503696
O        2.79603122       0.51812021      17.63996707
O        1.51446727       4.94487293      17.00927933
O        7.00978526       5.62092942      15.48451444
O        7.14523141       8.68776563      17.89532605
O        5.05646792       4.04705901      15.59941449
O       11.72952369       3.91073638      15.50402695
O       10.57876411       5.77995888      17.15768168
O       13.53915186       8.27273017      15.99233694
O        6.20380347       0.29676032      17.97826985
O        6.83849108       8.42838575      15.22803591
115
Lattice="13.75323 0.0 0.0 0.0 13.75323 0.0 0.0 0.0 23.89" Properties=species:S:1:pos:R:3 entry_id=6 rank=1 energy=-569.7055053710938 parent_id=4 pbc="T T F"
Pd       0.00000000       0.00000000      10.00000000
Pd       2.75064538       0.00000000      10.00000000
Pd       5.50129076       0.00000000      10.00000000
Pd       8.25193614       0.00000000      10.00000000
Pd      11.00258152       0.00000000      10.00000000
Pd       0.00000000       2.75064538      10.00000000
Pd       2.75064538       2.75064538      10.00000000
Pd       5.50129076       2.75064538      10.00000000
Pd       8.25193614       2.75064538      10.00000000
Pd      11.00258152       2.75064538      10.00000000
Pd       0.00000000       5.50129076      10.00000000
Pd       2.75064538       5.50129076      10.00000000
Pd       5.50129076       5.50129076      10.00000000
Pd       8.25193614       5.50129076      10.00000000
Pd      11.00258152       5.50129076      10.00000000
Pd       0.00000000       8.25193614      10.00000000
Pd       2.75064538       8.25193614      10.00000000
Pd       5.50129076       8.25193614      10.00000000
Pd       8.25193614       8.25193614      10.00000000
Pd      11.00258152       8.25193614      10.00000000
Pd       0.00000000      11.00258152      10.00000000
Pd       2.75064538      11.00258152      10.00000000
Pd       5.50129076      11.00258152      10.00000000
Pd       8.25193614      11.00258152      10.00000000
Pd      11.00258152      11.00258152      10.00000000
Pd       1.41143546       1.40309639      11.97661341
Pd       4.13612689       1.37306676      11.96809928
Pd       6.84739310       1.35448592      12.02443787
Pd       9.57512057       1.39592898      11.89594876
Pd      12.38684272       1.37174114      11.92044161
Pd       1.38513994       4.15096836      11.96519473
Pd       4.10920601       4.13041712      12.00253989
Pd       6.82684926       4.09666377      12.03704659
Pd       9.56728621       4.13975942      11.94281254
Pd      12.36578195       4.13265160      11.93417299
Pd       1.37110082       6.89256210      11.94010419
Pd       4.13935064       6.87026939      11.96482277
Pd       6.87097415       6.85831372      11.95140951
Pd       9.64205429       6.82915781      11.94515418
Pd      12.39111484       6.85622887      11.94896407
Pd       1.35726089       9.67482587      11.96853877
Pd       4.11777592       9.66324146      11.95099537
Pd       6.89476706       9.64088005      11.95142944
Pd       9.64982872       9.59779534      11.89439304
Pd      12.42487279       9.60955999      11.94161946
Pd       1.39020601      12.42204951      11.97052971
Pd       4.12339833      12.39910007      12.00256696
Pd       6.86816975      12.39901143      11.97280504
Pd       9.63028672      12.36702810      11.91406436
Pd      12.43826643      12.34111659      11.97846153
Pd       0.12267389       0.04699081      13.95590699
Pd       2.89805979       0.06704530      14.08877545
Pd       5.71741248      13.62247836      14.09607762
Pd       8.44325053      13.71417758      14.13690887
Pd      11.16292741      13.66999968      13.96979740
Pd      13.65070084       2.78412642      13.86239281
Pd       2.56317703       2.92918599      14.06498551
Pd       5.39410733       2.58944489      14.07835617
Pd       8.12600829       2.79249039      13.97651980
Pd      10.95275178       2.62513840      13.93859671
Pd       0.02991244       5.56752999      13.91761688
Pd       2.70544535       5.67537734      13.97907807
Pd       5.39201431       5.53839052      14.07180618
Pd       8.38166546       5.51490201      13.98316501
Pd      11.09907389       5.46814396      14.05487609
Pd      13.74866735       8.34282212      13.95207432
Pd       2.67644709       8.37539799      13.98555006
Pd       5.37351334       8.23987168      13.88090894
Pd       8.37728890       8.29905515      13.93373313
Pd      11.04443703       8.19538096      13.93581970
Pd      13.12747654      11.87151896      15.66726559
Pd       2.62042165      11.11865566      13.95337695
Pd       5.48024595      10.93578336      13.91459281
Pd       8.22583042      11.01995163      13.91081315
Pd      11.10469677      10.87724405      13.90189230
Pd      12.21060992       6.75550635      16.44901066
Pd       8.91711054       9.36264194      17.47180301
Pd       1.90984463      12.89734142      16.54952038
Pd       1.19316066       6.76774104      16.22824197
Pd      11.95880337       9.48513522      16.34228927
Pd       7.40427930       1.81363727      17.89148519
Pd       4.90878285       0.94510311      16.64815371
Pd       5.97727786      10.00141686      16.55498470
Pd       4.36412714      12.09597771      15.96510800
Pd       9.69189360      11.99810676      15.98390232
Pd      13.56061098       4.26370254      16.24485595
Pd       3.24724032       4.48140823      16.31036178
Pd      10.06941813       3.89031199      16.64889919
Pd       2.74952023       9.91180450      16.36415722
Pd       7.01421319       7.08062606      16.78773928
Pd       6.94429684      12.68875620      16.78998110
Pd       9.60148682       7.09781422      15.98245664
Pd       6.76911029       3.93146215      16.60244009
Pd       0.93473182       1.68203625      15.95360329
Pd       3.98873651       7.16233446      16.04348656
O        8.37192594       3.54416572      17.67776090
O       10.48205414      10.45600830      17.13961133
O       11.45059474      12.89723546      15.84784746
O       10.01075710       1.97542993      15.87777976
O        8.70434116       1.55372998      15.56877146
O        4.30899410       8.93457476      16.99714815
O        3.83286043       1.61423808      15.12639533
O        2.09962110       1.75298901      17.56491189
O        7.80528348      11.06634983      16.01233129
O        1.29044073      11.18557612      15.69059081
O        2.83642955       0.59093196      17.62028568
O        1.50191648       4.95009689      17.01142101
O        7.00291696       5.61763634      15.48191083
O        7.13654052       8.68678789      17.89021348
O        5.04474907       4.04965615      15.59825584
O       11.71772396       3.91892606      15.50503173
O       10.57402279       5.78589222      17.16131503
O       13.53598487       8.27753295      15.99236218
O        6.19365221       0.29538682      17.99226679
O        6.83492184       8.43013099      15.22609159
115
Lattice="13.75323 0.0 0.0 0.0 13.75323 0.0 0.0 0.0 23.89" Properties=species:S:1:pos:R:3 entry_id=4 rank=2 energy=-569.4345703125 parent_id=3 pbc="T T F"
Pd       0.00000000       0.00000000      10.00000000
Pd       2.75064538       0.00000000      10.00000000
Pd       5.50129076       0.00000000      10.00000000
Pd       8.25193614       0.00000000      10.00000000
Pd      11.00258152       0.00000000      10.00000000
Pd       0.00000000       2.75064538      10.00000000
Pd       2.75064538       2.75064538      10.00000000
Pd       5.50129076       2.75064538      10.00000000
Pd       8.25193614       2.75064538      10.00000000
Pd      11.00258152       2.75064538      10.00000000
Pd       0.00000000       5.50129076      10.00000000
Pd       2.75064538       5.50129076      10.00000000
Pd       5.50129076       5.50129076      10.00000000
Pd       8.25193614       5.50129076      10.00000000
Pd      11.00258152       5.50129076      10.00000000
Pd       0.00000000       8.25193614      10.00000000
Pd       2.75064538       8.25193614      10.00000000
Pd       5.50129076       8.25193614      10.00000000
Pd       8.25193614       8.25193614      10.00000000
Pd      11.00258152       8.25193614      10.00000000
Pd       0.00000000      11.00258152      10.00000000
Pd       2.75064538      11.00258152      10.00000000
Pd       5.50129076      11.00258152      10.00000000
Pd       8.25193614      11.00258152      10.00000000
Pd      11.00258152      11.00258152      10.00000000
Pd       1.35482064       1.34462441      12.00293240
Pd       4.10616360       1.36677587      11.94531121
Pd       6.84693818       1.35936297      12.01014991
Pd       9.57512057       1.39592898      11.89594876
Pd      12.38684272       1.37174114      11.92044161
Pd       1.37111848       4.13645211      11.94077341
Pd       4.11944420       4.14544224      11.97885423
Pd       6.83672251       4.11891342      12.02777030
Pd       9.56728621       4.13975942      11.94281254
Pd      12.36578195       4.13265160      11.93417299
Pd       1.37110082       6.89256210      11.94010419
Pd       4.13935064       6.87026939      11.96482277
Pd       6.87097415       6.85831372      11.95140951
Pd       9.64205429       6.82915781      11.94515418
Pd      12.39111484       6.85622887      11.94896407
Pd       1.35735470       9.68582744      12.02230329
Pd       4.11777592       9.66324146      11.95099537
Pd       6.89476706       9.64088005      11.95142944
Pd       9.64982872       9.59779534      11.89439304
Pd      12.42487279       9.60955999      11.94161946
Pd       1.39147006      12.39928156      12.06440989
Pd       4.11858845      12.38885538      11.98544091
Pd       6.86816975      12.39901143      11.97280504
Pd       9.63028672      12.36702810      11.91406436
Pd      12.46071597      12.34254135      11.97027528
Pd      13.68081351       0.03510536      14.15227432
Pd       2.74776114       0.09800859      14.07650561
Pd       5.56090674      13.59986925      14.06325797
Pd       8.32827089       0.02739536      14.03427034
Pd      11.01704775       0.00685696      13.74786264
Pd      13.71266542       2.74240326      13.88512910
Pd       2.65544846       2.84964544      13.95157141
Pd       5.40916635       2.64339848      13.98730001
Pd       8.15475601       2.84287243      13.96220529
Pd      10.98564798       2.65266880      13.94555151
Pd       0.01655589       5.52461320      13.93506707
Pd       2.70241708       5.58033398      13.96312630
Pd       5.41772445       5.52510461      14.11358004
Pd       8.32282316       5.54906244      14.04681195
Pd      11.06534530       5.47367629      14.04586608
Pd      13.74562960       8.29232730      13.98387309
Pd       2.66966415       8.31098763      13.98165805
Pd       5.33944839       8.22756921      13.93336984
Pd       8.35315600       8.32306506      13.94111696
Pd      11.03343232       8.19659498      13.92567648
Pd      13.68038674      10.99972349      14.41729522
Pd       2.85970495      11.08235534      14.01922905
Pd       5.61156447      10.92640557      13.91168344
Pd       8.35181763      11.02712243      14.05689405
Pd      11.05612119      10.86548386      13.80646605
Pd      12.21045215       6.63227768      16.51008853
Pd       9.30799880       9.62172514      17.23215703
Pd       2.26046676      12.83888975      16.60949974
Pd       1.17155960       6.45565054      16.35386279
Pd      12.15847562       9.37380185      16.26186436
Pd       7.46139678       1.74638360      18.04798784
Pd       5.19883076       0.66657922      16.83442882
Pd       6.82834214      10.32304702      16.32033123
Pd       4.68285017      11.86756323      16.15169777
Pd      10.98192117      12.39682303      15.89275792
Pd      13.51818605       4.09257120      16.26081467
Pd       3.23024899       4.22713637      16.29817248
Pd      10.02931823       3.85648253      16.67442406
Pd       2.98696257       9.72420751      16.40574583
Pd       7.16662058       7.21063888      16.83177701
Pd       7.51877897      12.90074286      16.89479563
Pd       9.65669515       7.11089092      15.95822092
Pd       6.75162747       3.84084856      16.62744783
Pd       1.20676128       1.61976175      15.91871504
Pd       3.88299256       6.93185842      15.99785459
O        8.34191723       3.50940482      17.72279982
O       10.92865684      10.66952974      17.02980086
O       12.95029815      12.53849880      15.62542268
O        9.98085810       1.94217105      15.88332022
O        8.67043487       1.59416908      15.53612106
O        4.09110378       8.41540963      17.20545009
O        4.34642447       1.19091375      15.12872233
O        2.47496602       1.78023707      17.45538661
O        8.94717188      12.41909936      15.59860295
O        1.67790519      11.11570193      15.76185878
O        3.14694172       0.56997655      17.63781970
O        1.49345653       4.63123636      17.06586273
O        6.97931604       5.63729989      15.63792941
O        7.55529848       8.92000592      17.73892336
O        5.05373945       3.93659290      15.59269984
O       11.66617196       3.89963108      15.51749717
O       10.52227648       5.75027568      17.18261456
O       13.64448422       8.00608411      16.02536577
O        6.42239773       0.07590012      18.27057033
O        6.80051673       8.51801856      15.27486516
115
Lattice="13.75323 0.0 0.0 0.0 13.75323 0.0 0.0 0.0 23.89" Properties=species:S:1:pos:R:3 entry_id=5 rank=3 energy=-569.4331665039062 parent_id=4 pbc="T T F"
Pd       0.00000000       0.00000000      10.00000000
Pd       2.75064538       0.00000000      10.00000000
Pd       5.50129076       0.00000000      10.00000000
Pd       8.25193614       0.00000000      10.00000000
Pd      11.00258152       0.00000000      10.00000000
Pd       0.00000000       2.75064538      10.00000000
Pd       2.75064538       2.75064538      10.00000000
Pd       5.50129076       2.75064538      10.00000000
Pd       8.25193614       2.75064538      10.00000000
Pd      11.00258152       2.75064538      10.00000000
Pd       0.00000000       5.50129076      10.00000000
Pd       2.75064538       5.50129076      10.00000000
Pd       5.50129076       5.50129076      10.00000000
Pd       8.25193614       5.50129076      10.00000000
Pd      11.00258152       5.50129076      10.00000000
Pd       0.00000000       8.25193614      10.00000000
Pd       2.75064538       8.25193614      10.00000000
Pd       5.50129076       8.25193614      10.00000000
Pd       8.25193614       8.25193614      10.00000000
Pd      11.00258152       8.25193614      10.00000000
Pd       0.00000000      11.00258152      10.00000000
Pd       2.75064538      11.00258152      10.00000000
Pd       5.50129076      11.00258152      10.00000000
Pd       8.25193614      11.00258152      10.00000000
Pd      11.00258152      11.00258152      10.00000000
Pd       1.35449802       1.34493663      12.00473229
Pd       4.10686163       1.36699394      11.94799406
Pd       6.84603370       1.35560749      12.01220507
Pd       9.57512057       1.39592898      11.89594876
Pd      12.38684272       1.37174114      11.92044161
Pd       1.37409945       4.13971175      11.93722641
Pd       4.12308258       4.14726743      11.97677896
Pd       6.83974507       4.11489182      12.02576147
Pd       9.56728621       4.13975942      11.94281254
Pd      12.36578195       4.13265160      11.93417299
Pd       1.37110082       6.89256210      11.94010419
Pd       4.13935064       6.87026939      11.96482277
Pd       6.87097415       6.85831372      11.95140951
Pd       9.64205429       6.82915781      11.94515418
Pd      12.39111484       6.85622887      11.94896407
Pd       1.36076749       9.68938072      12.02717981
Pd       4.11777592       9.66324146      11.95099537
Pd       6.89476706       9.64088005      11.95142944
Pd       9.64982872       9.59779534      11.89439304
Pd      12.42487279       9.60955999      11.94161946
Pd       1.39137091      12.40267736      12.07077749
Pd       4.11730801      12.38999158      11.98966497
Pd       6.86816975      12.39901143      11.97280504
Pd       9.63028672      12.36702810      11.91406436
Pd      12.46460381      12.34094560      11.97464387
Pd      13.68745907       0.04901615      14.16711494
Pd       2.75540039       0.10559208      14.08349642
Pd       5.57021537      13.59785067      14.07122247
Pd       8.33808953       0.02224301      14.03545028
Pd      11.02436090       0.00249538      13.74970128
Pd      13.71731676       2.75573946      13.88251510
Pd       2.66069509       2.85916191      13.94528613
Pd       5.41147267       2.64355223      13.98917925
Pd       8.16113211       2.83164235      13.95810324
Pd      10.99226974       2.65217190      13.94789368
Pd       0.02948112       5.54137779      13.92553053
Pd       2.71474527       5.58891679      13.96412301
Pd       5.42938326       5.51683722      14.10811564
Pd       8.34032959       5.54342087      14.04199000
Pd      11.08323155       5.47738603      14.05193931
Pd      13.75015955       8.31197559      13.98554495
Pd       2.67575767       8.31273452      13.99985677
Pd       5.35146313       8.22455566      13.91988676
Pd       8.36820284       8.32125026      13.94071590
Pd      11.04264113       8.19577794      13.93196475
Pd      13.67901533      11.01444499      14.44229380
Pd       2.85789953      11.08554148      14.02677143
Pd       5.60825933      10.92528053      13.91103099
Pd       8.34975523      11.02723138      14.05585844
Pd      11.06000642      10.86510900      13.81176502
Pd      12.22095446       6.66166588      16.51108715
Pd       9.27476882       9.62297997      17.25207308
Pd       2.25402840      12.85778983      16.61023408
Pd       1.19929053       6.53728409      16.31490347
Pd      12.12463176       9.41029928      16.28098271
Pd       7.47589797       1.73537125      18.05030252
Pd       5.20038326       0.67048098      16.84750413
Pd       6.80932004      10.31653053      16.31282331
Pd       4.67306980      11.87742796      16.14754468
Pd      10.97313184      12.39858496      15.90108857
Pd      13.53970274       4.14739648      16.25023045
Pd       3.24628153       4.25277914      16.29418154
Pd      10.05076934       3.86189548      16.67861722
Pd       2.98293582       9.72469083      16.41644273
Pd       7.15275268       7.19544376      16.81837279
Pd       7.50735808      12.89322079      16.90198329
Pd       9.65821869       7.11229536      15.96833043
Pd       6.77319673       3.83003472      16.62723735
Pd       1.21711190       1.66131072      15.91871047
Pd       3.94459404       6.93889389      15.99922188
O        8.36494313       3.49679642      17.72473194
O       10.88598320      10.68801928      17.06483659
O       12.94327934      12.55562344      15.63927543
O       10.00378908       1.94890695      15.88018330
O        8.69322250       1.59471780      15.53711007
O        4.09072346       8.42063667      17.21844459
O        4.36150898       1.19419027      15.13589453
O        2.47822822       1.80490994      17.46068188
O        8.93839967      12.41494651      15.60520176
O        1.67925147      11.12476466      15.77341697
O        3.14231683       0.58952067      17.63847998
O        1.51381599       4.71191677      17.03954316
O        6.99761367       5.62057440      15.62698788
O        7.52071131       8.90576821      17.73373246
O        5.07011279       3.92961383      15.60036481
O       11.68603613       3.91538684      15.51381207
O       10.54337315       5.75851399      17.18619301
O       13.62351681       8.06376360      16.02913225
O        6.42169658       0.07389426      18.28222212
O        6.81110007       8.51410257      15.26168406
115
Lattice="13.75323 0.0 0.0 0.0 13.75323 0.0 0.0 0.0 23.89" Properties=species:S:1:pos:R:3 entry_id=3 rank=4 energy=-569.43212890625 parent_id=2 pbc="T T F"
Pd       0.00000000       0.00000000      10.00000000
Pd       2.75064538       0.00000000      10.00000000
Pd       5.50129076       0.00000000      10.00000000
Pd       8.25193614       0.00000000      10.00000000
Pd      11.00258152       0.00000000      10.00000000
Pd       0.00000000       2.75064538      10.00000000
Pd       2.75064538       2.75064538      10.00000000
Pd       5.50129076       2.75064538      10.00000000
Pd       8.25193614       2.75064538      10.00000000
Pd      11.00258152       2.75064538      10.00000000
Pd       0.00000000       5.50129076      10.00000000
Pd       2.75064538       5.50129076      10.00000000
Pd       5.50129076       5.50129076      10.00000000
Pd       8.25193614       5.50129076      10.00000000
Pd      11.00258152       5.50129076      10.00000000
Pd       0.00000000       8.25193614      10.00000000
Pd       2.75064538       8.25193614      10.00000000
Pd       5.50129076       8.25193614      10.00000000
Pd       8.25193614       8.25193614      10.00000000
Pd      11.00258152       8.25193614      10.00000000
Pd       0.00000000      11.00258152      10.00000000
Pd       2.75064538      11.00258152      10.00000000
Pd       5.50129076      11.00258152      10.00000000
Pd       8.25193614      11.00258152      10.00000000
Pd      11.00258152      11.00258152      10.00000000
Pd       1.35384944       1.35096044      11.99757454
Pd       4.10383539       1.36887734      11.94692489
Pd       6.84300117       1.35775615      12.01273955
Pd       9.57512057       1.39592898      11.89594876
Pd      12.38684272       1.37174114      11.92044161
Pd       1.36753206       4.14264716      11.93733871
Pd       4.11670717       4.14898284      11.97604254
Pd       6.83398289       4.11688121      12.02751989
Pd       9.56728621       4.13975942      11.94281254
Pd      12.36578195       4.13265160      11.93417299
Pd       1.37110082       6.89256210      11.94010419
Pd       4.13935064       6.87026939      11.96482277
Pd       6.87097415       6.85831372      11.95140951
Pd       9.64205429       6.82915781      11.94515418
Pd      12.39111484       6.85622887      11.94896407
Pd       1.35631835       9.69348951      12.02868809
Pd       4.11777592       9.66324146      11.95099537
Pd       6.89476706       9.64088005      11.95142944
Pd       9.64982872       9.59779534      11.89439304
Pd      12.42487279       9.60955999      11.94161946
Pd       1.38728582      12.40767800      12.06497593
Pd       4.11606083      12.39074723      11.98645270
Pd       6.86816975      12.39901143      11.97280504
Pd       9.63028672      12.36702810      11.91406436
Pd      12.45862741      12.34042759      11.97170260
Pd      13.67344599       0.04171864      14.15940839
Pd       2.73980768       0.11004452      14.07558185
Pd       5.55568284      13.60048970      14.07082359
Pd       8.32315257       0.01788741      14.02920570
Pd      11.01387540       0.00004453      13.74827108
Pd      13.70507726       2.74944481      13.87701559
Pd       2.64756500       2.86062884      13.94410793
Pd       5.40147425       2.64957533      13.98820734
Pd       8.15256408       2.83384920      13.96070101
Pd      10.97846915       2.64410569      13.94277805
Pd       0.01038114       5.53133594      13.93817242
Pd       2.69483584       5.58970233      13.96505205
Pd       5.40897803       5.52328259      14.11624711
Pd       8.31931090       5.54053895      14.03893827
Pd      11.06095432       5.46739056      14.04493513
Pd      13.74867131       8.29829679      13.98786261
Pd       2.67021237       8.32224685      13.99143014
Pd       5.33692302       8.22656010      13.92575944
Pd       8.35525451       8.31935260      13.94162010
Pd      11.03385587       8.19017882      13.92871188
Pd      13.66047124      11.00728680      14.43466410
Pd       2.84673618      11.09425897      14.02728492
Pd       5.59703904      10.92957472      13.90794590
Pd       8.34000369      11.02047981      14.05675664
Pd      11.04872676      10.86067670      13.80768690
Pd      12.19229418       6.62163507      16.50795233
Pd       9.26112932       9.60429467      17.21698715
Pd       2.23307320      12.86882200      16.61335480
Pd       1.16117573       6.46059216      16.35939132
Pd      12.13279292       9.36530645      16.26565276