115
Lattice="13.75323 0.0 0.0 0.0 13.75323 0.0 0.0 0.0 23.89" Properties=species:S:1:pos:R:3 entry_id=7 rank=0 energy=-569.7075805664062 parent_id=6 pbc="T T F"
Pd       0.00000000       0.00000000      10.00000000
Pd       2.75064538       0.00000000      10.00000000
Pd       5.50129076       0.00000000      10.00000000
Pd       8.25193614       0.00000000      10.00000000
Pd      11.00258152       0.00000000      10.00000000
Pd       0.00000000       2.75064538      10.00000000
Pd       2.75064538       2.75064538      10.00000000
Pd       5.50129076       2.75064538      10.00000000
Pd       8.25193614       2.75064538      10.00000000
Pd      11.00258152       2.75064538      10.00000000
Pd       0.00000000       5.50129076      10.00000000
Pd       2.75064538       5.50129076      10.00000000
Pd       5.50129076       5.50129076      10.00000000
Pd       8.25193614       5.50129076      10.00000000
Pd      11.00258152       5.50129076      10.00000000
Pd       0.00000000       8.25193614      10.00000000
Pd       2.75064538       8.25193614      10.00000000
Pd       5.50129076       8.25193614      10.00000000
Pd       8.25193614       8.25193614      10.00000000
Pd      11.00258152       8.25193614      10.00000000
Pd       0.00000000      11.00258152      10.00000000
Pd       2.75064538      11.00258152      10.00000000
Pd       5.50129076      11.00258152      10.00000000
Pd       8.25193614      11.00258152      10.00000000
Pd      11.00258152      11.00258152      10.00000000
Pd       1.41225924       1.40290086      11.97889961
Pd       4.13385995       1.37474455      11.97118383
Pd       6.84370361       1.35419449      12.02448925
Pd       9.57512057       1.39592898      11.89594876
Pd      12.38684272       1.37174114      11.92044161
Pd       1.38237560       4.14901508      11.96820174
Pd       4.10742500       4.12944881      12.00748125
Pd       6.82718762       4.09568972      12.03777437
Pd       9.56728621       4.13975942      11.94281254
Pd      12.36578195       4.13265160      11.93417299
Pd       1.37110082       6.89256210      11.94010419
Pd       4.13935064       6.87026939      11.96482277
Pd       6.87097415       6.85831372      11.95140951
Pd       9.64205429       6.82915781      11.94515418
Pd      12.39111484       6.85622887      11.94896407
Pd       1.35718868       9.67244936      11.96574545
Pd       4.11777592       9.66324146      11.95099537
Pd       6.89476706       9.64088005      11.95142944
Pd       9.64982872       9.59779534      11.89439304
Pd      12.42487279       9.60955999      11.94161946
Pd       1.39206812      12.42005600      11.96808633
Pd       4.12397821      12.40144086      12.00482778
Pd       6.86816975      12.39901143      11.97280504
Pd       9.63028672      12.36702810      11.91406436
Pd      12.43867114      12.33918308      11.98087124
Pd       0.12400946       0.03393758      13.95043714
Pd       2.89840071       0.06360087      14.09533252
Pd       5.71441224      13.61655569      14.09720930
Pd       8.43918131      13.71528213      14.13734417
Pd      11.16141872      13.67127776      13.97104899
Pd      13.64673005       2.77356265      13.86837121
Pd       2.55470830       2.93276544      14.07573149
Pd       5.38453656       2.57868667      14.08833189
Pd       8.11791341       2.78981808      13.97927995
Pd      10.94738261       2.62685392      13.93622354
Pd       0.03471846       5.56557558      13.92034926
Pd       2.70944656       5.67774274      13.98101492
Pd       5.39922260       5.53284654      14.06974546
Pd       8.38645396       5.51559432      13.98455876
Pd      11.10470489       5.46704004      14.05714750
Pd      13.75164230       8.34010920      13.95147034
Pd       2.68025702       8.37273050      13.98141902
Pd       5.37846231       8.23520844      13.88010668
Pd       8.38079098       8.30090926      13.93482721
Pd      11.04789662       8.19300474      13.93567149
Pd      13.11905291      11.85391440      15.65420410
Pd       2.61833148      11.11510428      13.95017737
Pd       5.47625989      10.93256814      13.91559670
Pd       8.22392664      11.02110428      13.90840503
Pd      11.10049710      10.87358755      13.90040786
Pd      12.21657461       6.74820729      16.44986133
Pd       8.92532421       9.36170301      17.47962312
Pd       1.88921305      12.84458446      16.54003945
Pd       1.19395732       6.76483586      16.23830945
Pd      11.95967959       9.47668530      16.34839040
Pd       7.41491065       1.81340915      17.88137583
Pd       4.90678964       0.94317557      16.64622796
Pd       5.98502408       9.99887322      16.55195637
Pd       4.36163244      12.08935460      15.97093498
Pd       9.69395564      11.99463834      15.98281597
Pd      13.57510103       4.25249124      16.24185947
Pd       3.26104563       4.48421906      16.31013467
Pd      10.07832183       3.88592164      16.64635915
Pd       2.74897307       9.89353285      16.35877280
Pd       7.02418579       7.08225493      16.79218967
Pd       6.94752598      12.68887824      16.77480294
Pd       9.60887797       7.10068362      15.98415687
Pd       6.77996809       3.93447076      16.60227071
Pd       0.93164622       1.65401247      15.95723850
Pd       3.99304150       7.16114153      16.04181770
O        8.38297001       3.54547187      17.67797490
O       10.48824850      10.45641681      17.14395891
O       11.45151449      12.89335094      15.84659118
O       10.01584323       1.97219420      15.87582481
O        8.70660925       1.55309261      15.57146282
O        4.31750989       8.93264846      16.99603248
O        3.80932619       1.61533784      15.14488943
O        2.02855929       1.65596626      17.61743623
O        7.80896477      11.06292068      16.00737898
O        1.27451302      11.14112140      15.66503696
O        2.79603122       0.51812021      17.63996707
O        1.51446727       4.94487293      17.00927933
O        7.00978526       5.62092942      15.48451444
O        7.14523141       8.68776563      17.89532605
O        5.05646792       4.04705901      15.59941449
O       11.72952369       3.91073638      15.50402695
O       10.57876411       5.77995888      17.15768168
O       13.53915186       8.27273017      15.99233694
O        6.20380347       0.29676032      17.97826985
O        6.83849108       8.42838575      15.22803591
