115
Lattice="13.75323 0.0 0.0 0.0 13.75323 0.0 0.0 0.0 23.89" Properties=species:S:1:pos:R:3 entry_id=13 rank=0 energy=-573.3915405273438 parent_id=12 pbc="T T F"
Pd       0.00000000       0.00000000      10.00000000
Pd       2.75064538       0.00000000      10.00000000
Pd       5.50129076       0.00000000      10.00000000
Pd       8.25193614       0.00000000      10.00000000
Pd      11.00258152       0.00000000      10.00000000
Pd       0.00000000       2.75064538      10.00000000
Pd       2.75064538       2.75064538      10.00000000
Pd       5.50129076       2.75064538      10.00000000
Pd       8.25193614       2.75064538      10.00000000
Pd      11.00258152       2.75064538      10.00000000
Pd       0.00000000       5.50129076      10.00000000
Pd       2.75064538       5.50129076      10.00000000
Pd       5.50129076       5.50129076      10.00000000
Pd       8.25193614       5.50129076      10.00000000
Pd      11.00258152       5.50129076      10.00000000
Pd       0.00000000       8.25193614      10.00000000
Pd       2.75064538       8.25193614      10.00000000
Pd       5.50129076       8.25193614      10.00000000
Pd       8.25193614       8.25193614      10.00000000
Pd      11.00258152       8.25193614      10.00000000
Pd       0.00000000      11.00258152      10.00000000
Pd       2.75064538      11.00258152      10.00000000
Pd       5.50129076      11.00258152      10.00000000
Pd       8.25193614      11.00258152      10.00000000
Pd      11.00258152      11.00258152      10.00000000
Pd       1.38001874       1.41478350      11.97582600
Pd       4.12220623       1.38754371      11.96747149
Pd       6.85749984       1.38735423      11.99007699
Pd       9.57512057       1.39592898      11.89594876
Pd      12.38684272       1.37174114      11.92044161
Pd       1.38065228       4.14269128      11.99705503
Pd       4.10432448       4.13660304      11.98801208
Pd       6.85837731       4.10662267      11.99558891
Pd       9.56728621       4.13975942      11.94281254
Pd      12.36578195       4.13265160      11.93417299
Pd       1.37110082       6.89256210      11.94010419
Pd       4.13935064       6.87026939      11.96482277
Pd       6.87097415       6.85831372      11.95140951
Pd       9.64205429       6.82915781      11.94515418
Pd      12.39111484       6.85622887      11.94896407
Pd       1.36965996       9.64617523      11.97458133
Pd       4.11777592       9.66324146      11.95099537
Pd       6.89476706       9.64088005      11.95142944
Pd       9.64982872       9.59779534      11.89439304
Pd      12.42487279       9.60955999      11.94161946
Pd       1.39142374      12.40478068      11.96744444
Pd       4.12008163      12.41015806      11.95513663
Pd       6.86816975      12.39901143      11.97280504
Pd       9.63028672      12.36702810      11.91406436
Pd      12.44718242      12.34846115      11.96292106
Pd       0.15739951       0.07339972      13.98449049
Pd       2.85108014       0.05324403      14.00694468
Pd       5.51577650      13.73997399      14.04445006
Pd       8.19736476       0.06169334      13.90540850
Pd      11.16047120      13.73389424      13.84511751
Pd      13.65240821       2.82208433      13.97212959
Pd       2.64795003       2.76251279      14.03473275
Pd       5.54492416       2.70473255      13.96593632
Pd       8.26499396       2.75632289      14.13220178
Pd      10.93806753       2.68290566      13.95157955
Pd      13.74655551       5.57072938      13.94027920
Pd       2.72297889       5.52931795      14.07434899
Pd       5.47097734       5.47759680      14.00169498
Pd       8.27300583       5.49558603      13.92021076
Pd      11.01854993       5.39744865      13.99482027
Pd      13.67824792       8.25726199      13.98228721
Pd       2.67724174       8.24215724      13.95455958
Pd       5.41421806       8.25846038      13.99508085
Pd       8.23312653       8.29711855      13.95764122
Pd      10.97563743       8.16977639      14.05053451
Pd       0.02241108      11.00144928      14.10611338
Pd       2.75493578      11.08535325      13.93136444
Pd       5.47229644      11.00856996      13.87534198
Pd       8.21353517      11.07303620      13.97903012
Pd      11.03980745      10.94405880      13.88087414
Pd      12.27447747       6.47119958      16.27190706
Pd       9.58491975       9.81962087      16.03129353
Pd       2.18873571      12.62910752      16.43846128
Pd       1.23235588       8.66286264      16.40799607
Pd      12.27712421       9.54729310      16.21844032
Pd       9.72323843       1.12311065      16.22926550
Pd       4.66306396       1.00151070      16.81382310
Pd       6.37777560       9.97034352      16.20382905
Pd       4.75549071      12.17404491      16.16543338
Pd      12.57969252      12.56248592      16.06601562
Pd       0.84301870       5.08157404      16.41869422
Pd       3.91936367       4.46328031      16.50100005
Pd      11.83845527       2.99414336      16.75592358
Pd       3.64611638       9.77090249      16.06960765
Pd       6.91304445       6.85083880      16.15452189
Pd       7.19665761      13.31675024      16.40969687
Pd       9.09324929       4.17151891      16.54103950
Pd       6.63958744       3.21718085      16.44096475
Pd       1.36982330       1.94056898      16.57068497
Pd       3.52979362       7.11567005      16.45923995
O        9.97575683       2.66979129      17.41815582
O       11.12879185      11.15190783      15.97148568
O        0.42612875       0.01723729      16.02584050
O       12.31622734       1.27554291      17.67199698
O       11.51781634       0.25696967      17.24269467
O        5.29747358       8.09837178      16.21559121
O        4.14305744       2.64675781      15.46838912
O        2.21062517       3.72197293      17.17471030
O        9.69198620      13.30162410      15.12886577
O        1.74844358      10.71423415      15.86418810
O        2.74921181       0.63161561      17.16009880
O        1.70303045       6.75868242      17.00131133
O        8.55789546       5.87643108      15.87311395
O        7.99342715       8.60169528      16.08217170
O        5.85559251       5.05863113      16.05826004
O       13.69347775       3.26660131      16.02321578
O       11.19608753       4.83122772      16.01399766
O       13.15293332       8.03016729      17.03024916
O        6.60904551       1.33474847      17.02231655
O        7.73514765      11.43943960      16.06075410
115
Lattice="13.75323 0.0 0.0 0.0 13.75323 0.0 0.0 0.0 23.89" Properties=species:S:1:pos:R:3 entry_id=11 rank=1 energy=-573.3892822265625 parent_id=8 pbc="T T F"
Pd       0.00000000       0.00000000      10.00000000
Pd       2.75064538       0.00000000      10.00000000
Pd       5.50129076       0.00000000      10.00000000
Pd       8.25193614       0.00000000      10.00000000
Pd      11.00258152       0.00000000      10.00000000
Pd       0.00000000       2.75064538      10.00000000
Pd       2.75064538       2.75064538      10.00000000
Pd       5.50129076       2.75064538      10.00000000
Pd       8.25193614       2.75064538      10.00000000
Pd      11.00258152       2.75064538      10.00000000
Pd       0.00000000       5.50129076      10.00000000
Pd       2.75064538       5.50129076      10.00000000
Pd       5.50129076       5.50129076      10.00000000
Pd       8.25193614       5.50129076      10.00000000
Pd      11.00258152       5.50129076      10.00000000
Pd       0.00000000       8.25193614      10.00000000
Pd       2.75064538       8.25193614      10.00000000
Pd       5.50129076       8.25193614      10.00000000
Pd       8.25193614       8.25193614      10.00000000
Pd      11.00258152       8.25193614      10.00000000
Pd       0.00000000      11.00258152      10.00000000
Pd       2.75064538      11.00258152      10.00000000
Pd       5.50129076      11.00258152      10.00000000
Pd       8.25193614      11.00258152      10.00000000
Pd      11.00258152      11.00258152      10.00000000
Pd       1.38236610       1.42197641      11.97532565
Pd       4.12354270       1.39294448      11.96557060
Pd       6.85861688       1.38949041      11.98885678
Pd       9.57512057       1.39592898      11.89594876
Pd      12.38684272       1.37174114      11.92044161
Pd       1.38380427       4.14694894      11.99333390
Pd       4.10616514       4.14067706      11.98776450
Pd       6.85799893       4.10669533      11.99380290
Pd       9.56728621       4.13975942      11.94281254
Pd      12.36578195       4.13265160      11.93417299
Pd       1.37110082       6.89256210      11.94010419
Pd       4.13935064       6.87026939      11.96482277
Pd       6.87097415       6.85831372      11.95140951
Pd       9.64205429       6.82915781      11.94515418
Pd      12.39111484       6.85622887      11.94896407
Pd       1.36769430       9.65002183      11.97318952
Pd       4.11777592       9.66324146      11.95099537
Pd       6.89476706       9.64088005      11.95142944
Pd       9.64982872       9.59779534      11.89439304
Pd      12.42487279       9.60955999      11.94161946
Pd       1.38439453      12.41290426      11.96429086
Pd       4.11876708      12.41404819      11.95200804
Pd       6.86816975      12.39901143      11.97280504
Pd       9.63028672      12.36702810      11.91406436
Pd      12.44296442      12.34722841      11.97214289
Pd       0.14128687       0.08983324      13.97693344
Pd       2.84232691       0.07316157      14.00213501
Pd       5.50985506      13.74072250      14.03082181
Pd       8.19339813       0.06039180      13.90544100
Pd      11.14074049      13.74081858      13.85209800
Pd      13.65398735       2.83572151      13.97015210
Pd       2.65132390       2.78366351      14.03295472
Pd       5.54697599       2.70561275      13.96668938
Pd       8.27163089       2.75430286      14.13648759
Pd      10.94287939       2.69067700      13.95464003
Pd      13.74851813       5.57642701      13.93346806
Pd       2.72711695       5.54985753      14.07358827
Pd       5.47351931       5.47189065      14.00724870
Pd       8.27088380       5.49009631      13.91301561
Pd      11.01929283       5.40652596      13.99357457
Pd      13.67325318       8.26140742      13.97968648
Pd       2.67519536       8.26000551      13.95572731
Pd       5.41028324       8.25129113      14.00312408
Pd       8.23313376       8.29663437      13.95619794
Pd      10.97440031       8.18299963      14.04938547
Pd       0.00885724      11.01278869      14.12882562
Pd       2.75418293      11.10401425      13.91608710
Pd       5.46717535      11.00335574      13.87382551
Pd       8.20408805      11.07267062      13.97284832
Pd      11.02567729      10.95467074      13.88275238
Pd      12.28010049       6.50920719      16.26215568
Pd       9.56149506       9.84099014      16.03727073
Pd       2.15050305      12.63899709      16.40819284
Pd       1.22819564       8.70658356      16.38710164
Pd      12.24507507       9.58366719      16.22141632
Pd       9.72968219       1.18283358      16.26509031
Pd       4.65589144       1.00900640      16.78915710
Pd       6.34193749       9.94420548      16.20353922
Pd       4.73269985      12.19332619      16.14397085
Pd      12.55012263      12.59662059      16.06729310
Pd       0.85310230       5.12069657      16.41068636
Pd       3.92599950       4.49168239      16.50321120
Pd      11.85780738       3.03412393      16.77165755
Pd       3.61630634       9.82495006      16.05099063
Pd       6.93378953       6.83987211      16.15749764
Pd       7.18170798      13.29788622      16.39754673
Pd       9.11227798       4.19363227      16.54998246
Pd       6.65808037       3.20886191      16.43457455
Pd       1.37241500       1.96518063      16.55965626
Pd       3.53348608       7.15854778      16.46430417
O       10.00102969       2.71909297      17.46132910
O       11.09449575      11.18703710      15.97295578
O        0.40305798       0.04324216      16.01641996
O       12.33665560       1.31385743      17.68273304
O       11.52240321       0.30229209      17.26477408
O        5.32587884       8.05278138      16.22914360
O        4.14368010       2.67452471      15.47021634
O        2.21277168       3.75320632      17.16718097
O        9.67496648      13.36699410      15.16460921
O        1.58675415      10.75659220      15.78484816
O        2.74100852       0.63543088      17.13373918
O        1.70059664       6.81233403      16.98712495
O        8.58458848       5.88801537      15.85737937
O        7.98850087       8.60451543      16.08065948
O        5.87237701       5.05434790      16.06688260
O       13.70169899       3.30183915      16.01806292
O       11.21098126       4.86233158      16.01709793
O       13.14427506       8.07641488      17.02164641
O        6.60675406       1.32179859      17.00499451
O        7.70710224      11.41555798      16.05071576
115
Lattice="13.75323 0.0 0.0 0.0 13.75323 0.0 0.0 0.0 23.89" Properties=species:S:1:pos:R:3 entry_id=12 rank=2 energy=-573.3875122070312 parent_id=11 pbc="T T F"
Pd       0.00000000       0.00000000      10.00000000
Pd       2.75064538       0.00000000      10.00000000
Pd       5.50129076       0.00000000      10.00000000
Pd       8.25193614       0.00000000      10.00000000
Pd      11.00258152       0.00000000      10.00000000
Pd       0.00000000       2.75064538      10.00000000
Pd       2.75064538       2.75064538      10.00000000
Pd       5.50129076       2.75064538      10.00000000
Pd       8.25193614       2.75064538      10.00000000
Pd      11.00258152       2.75064538      10.00000000
Pd       0.00000000       5.50129076      10.00000000
Pd       2.75064538       5.50129076      10.00000000
Pd       5.50129076       5.50129076      10.00000000
Pd       8.25193614       5.50129076      10.00000000
Pd      11.00258152       5.50129076      10.00000000
Pd       0.00000000       8.25193614      10.00000000
Pd       2.75064538       8.25193614      10.00000000
Pd       5.50129076       8.25193614      10.00000000
Pd       8.25193614       8.25193614      10.00000000
Pd      11.00258152       8.25193614      10.00000000
Pd       0.00000000      11.00258152      10.00000000
Pd       2.75064538      11.00258152      10.00000000
Pd       5.50129076      11.00258152      10.00000000
Pd       8.25193614      11.00258152      10.00000000
Pd      11.00258152      11.00258152      10.00000000
Pd       1.37978755       1.40721490      11.97548543
Pd       4.11965106       1.38195657      11.96757520
Pd       6.85854917       1.38326011      11.98813237
Pd       9.57512057       1.39592898      11.89594876
Pd      12.38684272       1.37174114      11.92044161
Pd       1.38068916       4.13854667      11.99684630
Pd       4.10440484       4.13410319      11.98661666
Pd       6.85844217       4.10444103      11.99252215
Pd       9.56728621       4.13975942      11.94281254
Pd      12.36578195       4.13265160      11.93417299
Pd       1.37110082       6.89256210      11.94010419
Pd       4.13935064       6.87026939      11.96482277
Pd       6.87097415       6.85831372      11.95140951
Pd       9.64205429       6.82915781      11.94515418
Pd      12.39111484       6.85622887      11.94896407
Pd       1.37194439       9.64472788      11.97701901
Pd       4.11777592       9.66324146      11.95099537
Pd       6.89476706       9.64088005      11.95142944
Pd       9.64982872       9.59779534      11.89439304
Pd      12.42487279       9.60955999      11.94161946
Pd       1.39522888      12.39901894      11.97308921
Pd       4.11840123      12.40655838      11.96114749
Pd       6.86816975      12.39901143      11.97280504
Pd       9.63028672      12.36702810      11.91406436
Pd      12.44792060      12.34801923      11.95913019
Pd       0.15774685       0.06008134      13.98557293
Pd       2.85273441       0.04339816      14.02197362
Pd       5.51847346      13.73079334      14.04142918
Pd       8.20050095       0.05675784      13.90807999
Pd      11.16080422      13.72697900      13.84590225
Pd      13.65233042       2.81148511      13.96939635
Pd       2.64850618       2.75442691      14.03048109
Pd       5.54511473       2.69368576      13.96222148
Pd       8.26336958       2.75055084      14.12511379
Pd      10.93684493       2.67593504      13.95245918
Pd       0.00211378       5.56735967      13.94551958
Pd       2.73003590       5.52479379      14.07020722
Pd       5.47268975       5.46504251      14.00038326
Pd       8.27767661       5.49259211      13.91989896
Pd      11.02136184       5.39315017      13.99398315
Pd      13.68517013       8.25365843      13.98445671
Pd       2.68050652       8.23438875      13.95428508
Pd       5.42116016       8.24501137      13.98808050
Pd       8.23922083       8.29125173      13.95568213
Pd      10.98396831       8.16246157      14.04431801
Pd       0.02716716      10.99031129      14.09552084
Pd       2.75687132      11.07503414      13.94848324
Pd       5.47972569      10.99627924      13.87169598
Pd       8.22236571      11.06714195      13.98318043
Pd      11.04587722      10.94020731      13.88060997
Pd      12.28257596       6.43092657      16.27662158
Pd       9.60441697       9.78335349      16.02109727
Pd       2.18964478      12.59958201      16.45522123
Pd       1.24418429       8.61859741      16.42284919
Pd      12.29851544       9.51455695      16.21765014
Pd       9.72552924       1.09028660      16.22981374
Pd       4.65442757       0.97365617      16.82493539
Pd       6.39529796       9.95656350      16.19642519
Pd       4.75170967      12.15143273      16.15222738
Pd      12.58692370      12.53728063      16.06593140
Pd       0.85124980       5.04587927      16.42478953
Pd       3.92267159       4.42887499      16.50351335
Pd      11.84078203       2.96230783      16.75253582
Pd       3.66969810       9.72450024      16.07611984
Pd       6.91646066       6.83414034      16.15293483
Pd       7.19395962      13.29903153      16.40767656
Pd       9.09377895       4.14582062      16.53558756
Pd       6.63544678       3.19668532      16.43662353
Pd       1.37022965       1.90935849      16.57254349
Pd       3.53813090       7.07598737      16.46154714
O        9.97615252       2.64264008      17.41283829
O       11.14681692      11.11746347      15.97177985
O        0.43014273      13.74799462      16.02664111
O       12.31770099       1.24854508      17.67842692
O       11.52116744       0.22770261      17.24966126
O        5.29574759       8.09212498      16.20568667
O        4.14248211       2.62014368      15.46293291
O        2.21563381       3.68371691      17.18141829
O        9.69453577      13.27225171      15.12661459
O        1.80797712      10.66825550      15.90345303
O        2.74333997       0.60451385      17.17737177
O        1.71633398       6.71325343      17.02192180
O        8.56465921       5.85655183      15.87571783
O        8.00289571       8.57979846      16.08527726
O        5.85661588       5.04052036      16.05450398
O       13.69637836       3.23650381      16.02133038
O       11.19851258       4.79625062      16.00816494
O       13.16126403       7.98936432      17.03239669
O        6.59939010       1.31435090      17.01891042
O        7.74406039      11.42757779      16.06023527
115
Lattice="13.75323 0.0 0.0 0.0 13.75323 0.0 0.0 0.0 23.89" Properties=species:S:1:pos:R:3 entry_id=2 rank=3 energy=-573.3539428710938 parent_id=1 pbc="T T F"
Pd       0.00000000       0.00000000      10.00000000
Pd       2.75064538       0.00000000      10.00000000
Pd       5.50129076       0.00000000      10.00000000
Pd       8.25193614       0.00000000      10.00000000
Pd      11.00258152       0.00000000      10.00000000
Pd       0.00000000       2.75064538      10.00000000
Pd       2.75064538       2.75064538      10.00000000
Pd       5.50129076       2.75064538      10.00000000
Pd       8.25193614       2.75064538      10.00000000
Pd      11.00258152       2.75064538      10.00000000
Pd       0.00000000       5.50129076      10.00000000
Pd       2.75064538       5.50129076      10.00000000
Pd       5.50129076       5.50129076      10.00000000
Pd       8.25193614       5.50129076      10.00000000
Pd      11.00258152       5.50129076      10.00000000
Pd       0.00000000       8.25193614      10.00000000
Pd       2.75064538       8.25193614      10.00000000
Pd       5.50129076       8.25193614      10.00000000
Pd       8.25193614       8.25193614      10.00000000
Pd      11.00258152       8.25193614      10.00000000
Pd       0.00000000      11.00258152      10.00000000
Pd       2.75064538      11.00258152      10.00000000
Pd       5.50129076      11.00258152      10.00000000
Pd       8.25193614      11.00258152      10.00000000
Pd      11.00258152      11.00258152      10.00000000
Pd       1.37692938       1.43476331      11.97460066
Pd       4.12093275       1.38855959      11.96463738
Pd       6.85577015       1.37987553      11.99068886
Pd       9.57512057       1.39592898      11.89594876
Pd      12.38684272       1.37174114      11.92044161
Pd       1.37481400       4.16702734      12.02219830
Pd       4.09558169       4.14076252      11.99410681
Pd       6.85558965       4.10317543      11.99337854
Pd       9.56728621       4.13975942      11.94281254
Pd      12.36578195       4.13265160      11.93417299
Pd       1.37110082       6.89256210      11.94010419
Pd       4.13935064       6.87026939      11.96482277
Pd       6.87097415       6.85831372      11.95140951
Pd       9.64205429       6.82915781      11.94515418
Pd      12.39111484       6.85622887      11.94896407
Pd       1.37503465       9.67303481      11.95612477
Pd       4.11777592       9.66324146      11.95099537
Pd       6.89476706       9.64088005      11.95142944
Pd       9.64982872       9.59779534      11.89439304
Pd      12.42487279       9.60955999      11.94161946
Pd       1.39603347      12.42319440      11.97016637
Pd       4.12795709      12.40822364      11.96039268
Pd       6.86816975      12.39901143      11.97280504
Pd       9.63028672      12.36702810      11.91406436
Pd      12.44795381      12.34846789      11.96188005
Pd       0.14445195       0.10200038      13.98740751
Pd       2.83607341       0.07713752      13.99231745
Pd       5.49858931      13.69998527      14.06472222
Pd       8.18675115       0.05876842      13.90447189
Pd      11.15334595      13.71884088      13.84517777
Pd      13.64962710       2.85568179      13.98362982
Pd       2.64096680       2.79387971      14.03956324
Pd       5.54292635       2.67382223      13.95891048
Pd       8.26267214       2.75526470      14.11817326
Pd      10.93768177       2.66737712      13.94900994
Pd       0.01864759       5.61077251      14.01906823
Pd       2.73646308       5.56923402      14.14947199
Pd       5.47373084       5.44809701      14.00315229
Pd       8.28212836       5.50038444      13.92468291
Pd      11.03829566       5.37641273      14.00905787
Pd      13.65210730       8.34129654      13.89388703
Pd       2.69457652       8.25434572      13.89233241
Pd       5.42161609       8.22509370      13.99636026
Pd       8.22976860       8.29403785      13.96040023
Pd      10.96818431       8.13968281      14.06067521
Pd       0.05505807      11.03555037      14.10574049
Pd       2.79480307      11.09471086      13.93564702
Pd       5.50749830      10.97543009      13.87852016
Pd       8.23759700      11.06573391      13.98261794
Pd      11.06149485      10.92112062      13.88413027
Pd      12.27299981       6.38701550      16.33872538
Pd       9.59828036       9.76627453      16.03100959
Pd       2.25518609      12.63410078      16.43873249
Pd       1.16955082       7.62949266      15.97522405
Pd      12.32538833       9.48577665      16.20036108
Pd       9.70341485       1.06910214      16.20834435
Pd       4.68429592       0.93494688      16.80423346
Pd       6.38239830       9.93852740      16.23453917
Pd       4.76312368      12.05827056      16.19347244
Pd      12.58445907      12.51941426      16.05771581
Pd       0.88294302       4.90965949      16.59773281
Pd       3.93075215       4.36263332      16.54717131
Pd      11.81701598       2.92899450      16.75659843
Pd       3.54496304       9.60629321      16.07575316
Pd       6.86300696       6.83729180      16.16062913
Pd       7.19616861      13.25639250      16.40570717
Pd       9.07166042       4.14679607      16.53146694
Pd       6.63655280       3.17348934      16.43117760
Pd       1.37065404       1.84731390      16.59591275
Pd       3.62072884       6.99771710      16.77349561
O        9.94337336       2.62593463      17.39081006
O       11.16000802      11.08372705      15.96974511
O        0.43478462      13.72547130      16.02525703
O       12.28883015       1.21389550      17.67643756
O       11.50070552       0.19468289      17.23315751
O        5.21751426       8.14958027      16.23961698
O        4.14039817       2.59869730      15.45319203
O        2.25193860       3.55782020      17.25843813
O        9.67948591      13.24256108      15.11163181
O        1.91432073      10.80161100      15.81348639
O        2.77873867       0.60254828      17.21795980
O        1.88257372       6.40455891      17.43490378
O        8.51998800       5.85994099      15.88596269
O        7.97547988       8.56922011      16.08473544
O        5.83778172       5.01680730      16.05376262
O       13.68432001       3.17198906      16.04913250
O       11.17614471       4.77335691      16.03133248
O       13.21813286       7.95847991      16.99174155
O        6.62553889       1.28584853      17.00114643
O        7.75087209      11.38190429      16.07161781
115
Lattice="13.75323 0.0 0.0 0.0 13.75323 0.0 0.0 0.0 23.89" Properties=species:S:1:pos:R:3 entry_id=3 rank=4 energy=-573.3524169921875 parent_id=2 pbc="T T F"
Pd       0.00000000       0.00000000      10.00000000
Pd       2.75064538       0.00000000      10.00000000
Pd       5.50129076       0.00000000      10.00000000
Pd       8.25193614       0.00000000      10.00000000
Pd      11.00258152       0.00000000      10.00000000
Pd       0.00000000       2.75064538      10.00000000
Pd       2.75064538       2.75064538      10.00000000
Pd       5.50129076       2.75064538      10.00000000
Pd       8.25193614       2.75064538      10.00000000
Pd      11.00258152       2.75064538      10.00000000
Pd       0.00000000       5.50129076      10.00000000
Pd       2.75064538       5.50129076      10.00000000
Pd       5.50129076       5.50129076      10.00000000
Pd       8.25193614       5.50129076      10.00000000
Pd      11.00258152       5.50129076      10.00000000
Pd       0.00000000       8.25193614      10.00000000
Pd       2.75064538       8.25193614      10.00000000
Pd       5.50129076       8.25193614      10.00000000
Pd       8.25193614       8.25193614      10.00000000
Pd      11.00258152       8.25193614      10.00000000
Pd       0.00000000      11.00258152      10.00000000
Pd       2.75064538      11.00258152      10.00000000
Pd       5.50129076      11.00258152      10.00000000
Pd       8.25193614      11.00258152      10.00000000
Pd      11.00258152      11.00258152      10.00000000
Pd       1.37891108       1.43120283      11.97850079
Pd       4.12112845       1.38690360      11.96660673
Pd       6.85507849       1.37686069      11.99147596
Pd       9.57512057       1.39592898      11.89594876
Pd      12.38684272       1.37174114      11.92044161
Pd       1.37606219       4.16462126      12.02064432
Pd       4.09522983       4.14020092      11.99487884
Pd       6.85476344       4.10038844      11.99334053
Pd       9.56728621       4.13975942      11.94281254
Pd      12.36578195       4.13265160      11.93417299
Pd       1.37110082       6.89256210      11.94010419
Pd       4.13935064       6.87026939      11.96482277
Pd       6.87097415       6.85831372      11.95140951
Pd       9.64205429       6.82915781      11.94515418
Pd      12.39111484       6.85622887      11.94896407
Pd       1.37569882       9.67337828      11.95662266
Pd       4.11777592       9.66324146      11.95099537
Pd       6.89476706       9.64088005      11.95142944
Pd       9.64982872       9.59779534      11.89439304
Pd      12.42487279       9.60955999      11.94161946
Pd       1.39639700      12.42163531      11.97104646
Pd       4.12712518      12.40656983      11.95907042
Pd       6.86816975      12.39901143      11.97280504
Pd       9.63028672      12.36702810      11.91406436
Pd      12.44628175      12.35044573      11.95928994
Pd       0.14303155       0.09744804      13.99084311
Pd       2.83355542       0.07607501      13.99891776
Pd       5.49534992      13.69530342      14.06708412
Pd       8.18992785       0.05893885      13.90868608
Pd      11.15452981      13.71946967      13.84823949
Pd      13.65492104       2.85113169      13.98198788
Pd       2.64663777       2.79449818      14.04237150
Pd       5.54474969       2.67007618      13.96133875
Pd       8.26706158       2.75755380      14.11495660
Pd      10.94189450       2.66842704      13.95407264
Pd       0.01716519       5.60575141      14.01720308
Pd       2.73434142       5.57185722      14.15208859
Pd       5.47158107       5.44655965      14.00195811
Pd       8.28156263       5.49772547      13.92513748
Pd      11.03852590       5.37679269      14.01313997
Pd      13.65409451       8.34023254      13.89413796
Pd       2.70229392       8.25774503      13.88475369
Pd       5.42395346       8.22222792      14.00166082
Pd       8.22927020       8.29263807      13.95855251
Pd      10.96863994       8.14145136      14.06292140
Pd       0.05639443      11.03686040      14.09966534
Pd       2.79812263      11.09592293      13.94173022
Pd       5.51122632      10.97328590      13.87636278
Pd       8.24661864      11.06540109      13.97732136
Pd      11.06623346      10.92724651      13.88839856
Pd      12.29004322       6.39752884      16.33598549
Pd       9.60302443       9.76164600      16.02941987
Pd       2.26158596      12.62603639      16.45193268
Pd       1.18722836       7.61034861      15.96023793
Pd      12.33392042       9.49748950      16.19405024