115
Lattice="13.75323 0.0 0.0 0.0 13.75323 0.0 0.0 0.0 23.89" Properties=species:S:1:pos:R:3 entry_id=13 rank=0 energy=-573.3915405273438 parent_id=12 pbc="T T F"
Pd       0.00000000       0.00000000      10.00000000
Pd       2.75064538       0.00000000      10.00000000
Pd       5.50129076       0.00000000      10.00000000
Pd       8.25193614       0.00000000      10.00000000
Pd      11.00258152       0.00000000      10.00000000
Pd       0.00000000       2.75064538      10.00000000
Pd       2.75064538       2.75064538      10.00000000
Pd       5.50129076       2.75064538      10.00000000
Pd       8.25193614       2.75064538      10.00000000
Pd      11.00258152       2.75064538      10.00000000
Pd       0.00000000       5.50129076      10.00000000
Pd       2.75064538       5.50129076      10.00000000
Pd       5.50129076       5.50129076      10.00000000
Pd       8.25193614       5.50129076      10.00000000
Pd      11.00258152       5.50129076      10.00000000
Pd       0.00000000       8.25193614      10.00000000
Pd       2.75064538       8.25193614      10.00000000
Pd       5.50129076       8.25193614      10.00000000
Pd       8.25193614       8.25193614      10.00000000
Pd      11.00258152       8.25193614      10.00000000
Pd       0.00000000      11.00258152      10.00000000
Pd       2.75064538      11.00258152      10.00000000
Pd       5.50129076      11.00258152      10.00000000
Pd       8.25193614      11.00258152      10.00000000
Pd      11.00258152      11.00258152      10.00000000
Pd       1.38001874       1.41478350      11.97582600
Pd       4.12220623       1.38754371      11.96747149
Pd       6.85749984       1.38735423      11.99007699
Pd       9.57512057       1.39592898      11.89594876
Pd      12.38684272       1.37174114      11.92044161
Pd       1.38065228       4.14269128      11.99705503
Pd       4.10432448       4.13660304      11.98801208
Pd       6.85837731       4.10662267      11.99558891
Pd       9.56728621       4.13975942      11.94281254
Pd      12.36578195       4.13265160      11.93417299
Pd       1.37110082       6.89256210      11.94010419
Pd       4.13935064       6.87026939      11.96482277
Pd       6.87097415       6.85831372      11.95140951
Pd       9.64205429       6.82915781      11.94515418
Pd      12.39111484       6.85622887      11.94896407
Pd       1.36965996       9.64617523      11.97458133
Pd       4.11777592       9.66324146      11.95099537
Pd       6.89476706       9.64088005      11.95142944
Pd       9.64982872       9.59779534      11.89439304
Pd      12.42487279       9.60955999      11.94161946
Pd       1.39142374      12.40478068      11.96744444
Pd       4.12008163      12.41015806      11.95513663
Pd       6.86816975      12.39901143      11.97280504
Pd       9.63028672      12.36702810      11.91406436
Pd      12.44718242      12.34846115      11.96292106
Pd       0.15739951       0.07339972      13.98449049
Pd       2.85108014       0.05324403      14.00694468
Pd       5.51577650      13.73997399      14.04445006
Pd       8.19736476       0.06169334      13.90540850
Pd      11.16047120      13.73389424      13.84511751
Pd      13.65240821       2.82208433      13.97212959
Pd       2.64795003       2.76251279      14.03473275
Pd       5.54492416       2.70473255      13.96593632
Pd       8.26499396       2.75632289      14.13220178
Pd      10.93806753       2.68290566      13.95157955
Pd      13.74655551       5.57072938      13.94027920
Pd       2.72297889       5.52931795      14.07434899
Pd       5.47097734       5.47759680      14.00169498
Pd       8.27300583       5.49558603      13.92021076
Pd      11.01854993       5.39744865      13.99482027
Pd      13.67824792       8.25726199      13.98228721
Pd       2.67724174       8.24215724      13.95455958
Pd       5.41421806       8.25846038      13.99508085
Pd       8.23312653       8.29711855      13.95764122
Pd      10.97563743       8.16977639      14.05053451
Pd       0.02241108      11.00144928      14.10611338
Pd       2.75493578      11.08535325      13.93136444
Pd       5.47229644      11.00856996      13.87534198
Pd       8.21353517      11.07303620      13.97903012
Pd      11.03980745      10.94405880      13.88087414
Pd      12.27447747       6.47119958      16.27190706
Pd       9.58491975       9.81962087      16.03129353
Pd       2.18873571      12.62910752      16.43846128
Pd       1.23235588       8.66286264      16.40799607
Pd      12.27712421       9.54729310      16.21844032
Pd       9.72323843       1.12311065      16.22926550
Pd       4.66306396       1.00151070      16.81382310
Pd       6.37777560       9.97034352      16.20382905
Pd       4.75549071      12.17404491      16.16543338
Pd      12.57969252      12.56248592      16.06601562
Pd       0.84301870       5.08157404      16.41869422
Pd       3.91936367       4.46328031      16.50100005
Pd      11.83845527       2.99414336      16.75592358
Pd       3.64611638       9.77090249      16.06960765
Pd       6.91304445       6.85083880      16.15452189
Pd       7.19665761      13.31675024      16.40969687
Pd       9.09324929       4.17151891      16.54103950
Pd       6.63958744       3.21718085      16.44096475
Pd       1.36982330       1.94056898      16.57068497
Pd       3.52979362       7.11567005      16.45923995
O        9.97575683       2.66979129      17.41815582
O       11.12879185      11.15190783      15.97148568
O        0.42612875       0.01723729      16.02584050
O       12.31622734       1.27554291      17.67199698
O       11.51781634       0.25696967      17.24269467
O        5.29747358       8.09837178      16.21559121
O        4.14305744       2.64675781      15.46838912
O        2.21062517       3.72197293      17.17471030
O        9.69198620      13.30162410      15.12886577
O        1.74844358      10.71423415      15.86418810
O        2.74921181       0.63161561      17.16009880
O        1.70303045       6.75868242      17.00131133
O        8.55789546       5.87643108      15.87311395
O        7.99342715       8.60169528      16.08217170
O        5.85559251       5.05863113      16.05826004
O       13.69347775       3.26660131      16.02321578
O       11.19608753       4.83122772      16.01399766
O       13.15293332       8.03016729      17.03024916
O        6.60904551       1.33474847      17.02231655
O        7.73514765      11.43943960      16.06075410
