115
Lattice="13.75323 0.0 0.0 0.0 13.75323 0.0 0.0 0.0 23.89" Properties=species:S:1:pos:R:3 entry_id=14 rank=10 energy=-573.342529296875 parent_id=3 pbc="T T F"
Pd       0.00000000       0.00000000      10.00000000
Pd       2.75064538       0.00000000      10.00000000
Pd       5.50129076       0.00000000      10.00000000
Pd       8.25193614       0.00000000      10.00000000
Pd      11.00258152       0.00000000      10.00000000
Pd       0.00000000       2.75064538      10.00000000
Pd       2.75064538       2.75064538      10.00000000
Pd       5.50129076       2.75064538      10.00000000
Pd       8.25193614       2.75064538      10.00000000
Pd      11.00258152       2.75064538      10.00000000
Pd       0.00000000       5.50129076      10.00000000
Pd       2.75064538       5.50129076      10.00000000
Pd       5.50129076       5.50129076      10.00000000
Pd       8.25193614       5.50129076      10.00000000
Pd      11.00258152       5.50129076      10.00000000
Pd       0.00000000       8.25193614      10.00000000
Pd       2.75064538       8.25193614      10.00000000
Pd       5.50129076       8.25193614      10.00000000
Pd       8.25193614       8.25193614      10.00000000
Pd      11.00258152       8.25193614      10.00000000
Pd       0.00000000      11.00258152      10.00000000
Pd       2.75064538      11.00258152      10.00000000
Pd       5.50129076      11.00258152      10.00000000
Pd       8.25193614      11.00258152      10.00000000
Pd      11.00258152      11.00258152      10.00000000
Pd       1.38089238       1.43666437      11.97977660
Pd       4.12566779       1.38841057      11.96783369
Pd       6.85971740       1.37631536      11.99191057
Pd       9.57512057       1.39592898      11.89594876
Pd      12.38684272       1.37174114      11.92044161
Pd       1.38165815       4.16676924      12.02207883
Pd       4.10111768       4.14040404      11.99516812
Pd       6.86002409       4.09848747      11.99239566
Pd       9.56728621       4.13975942      11.94281254
Pd      12.36578195       4.13265160      11.93417299
Pd       1.37110082       6.89256210      11.94010419
Pd       4.13935064       6.87026939      11.96482277
Pd       6.87097415       6.85831372      11.95140951
Pd       9.64205429       6.82915781      11.94515418
Pd      12.39111484       6.85622887      11.94896407
Pd       1.37728990       9.67549331      11.95448673
Pd       4.11777592       9.66324146      11.95099537
Pd       6.89476706       9.64088005      11.95142944
Pd       9.64982872       9.59779534      11.89439304
Pd      12.42487279       9.60955999      11.94161946
Pd       1.39227782      12.42711134      11.97186844
Pd       4.12580131      12.40647428      11.96478911
Pd       6.86816975      12.39901143      11.97280504
Pd       9.63028672      12.36702810      11.91406436
Pd      12.44068468      12.35878825      11.95579113
Pd       0.15387704       0.10735639      13.99937060
Pd       2.84522159       0.07420031      13.99233250
Pd       5.50982250      13.69589049      14.06912586
Pd       8.20097825       0.05395330      13.91208939
Pd      11.15726475      13.72815435      13.85357791
Pd      13.66665207       2.86076708      13.98080398
Pd       2.66134313       2.79279664      14.04783413
Pd       5.55962036       2.66580918      13.96633779
Pd       8.28311243       2.75178373      14.12616651
Pd      10.95441597       2.67505798      13.95784151
Pd       0.03096630       5.61749773      14.01707335
Pd       2.74860527       5.57031974      14.14958504
Pd       5.48482845       5.43672761      14.00380149
Pd       8.29109488       5.49145486      13.92038546
Pd      11.05246626       5.38388073      14.01303805
Pd      13.66716043       8.34614838      13.89479583
Pd       2.70506497       8.25792748      13.89207124
Pd       5.43129816       8.21519261      13.99367521
Pd       8.23839307       8.28750635      13.95507509
Pd      10.98007006       8.15724651      14.05383262
Pd       0.04472423      11.04801769      14.08795365
Pd       2.77507378      11.09172308      13.94282781
Pd       5.49963615      10.97148905      13.88227012
Pd       8.23998761      11.06021250      13.97264928
Pd      11.05792906      10.94540734      13.87971967
Pd      12.30974686       6.42988469      16.33359089
Pd       9.62810804       9.77315289      16.01937364
Pd       2.31622099      12.65369151      16.45735899
Pd       1.19623795       7.66408365      15.98579657
Pd      12.34971499       9.52816043      16.18850517
Pd       9.75194347       1.13869979      16.26339979
Pd       4.73390483       0.94793670      16.82119512
Pd       6.42929830       9.93638283      16.21797001
Pd       4.82033860      12.06584077      16.21673733
Pd      12.61060204      12.54336993      16.06862578
Pd       0.91940985       4.92831132      16.58654144
Pd       3.96216851       4.36609827      16.55140345
Pd      11.87291082       2.97308904      16.78279239
Pd       3.61110604       9.61197339      16.07055497
Pd       6.89564730       6.83007459      16.15351321
Pd       7.24381003      13.25440802      16.41208066
Pd       9.11568665       4.16286194      16.55993917
Pd       6.67896257       3.16625872      16.43737800
Pd       1.40839597       1.85961440      16.60413669
Pd       3.65134819       7.00181559      16.76087956
O       10.01228049       2.68165456      17.45998495
O       11.17075849      11.12001561      15.96255406
O        0.47971357      13.72900710      16.03501525
O       12.35817772       1.25396947      17.68992495
O       11.55591976       0.24001133      17.25548958
O        5.25421720       8.14724523      16.22466392
O        4.16460668       2.59657340      15.46555221
O        2.27943807       3.57488873      17.26605683
O        9.69513511      13.32755676      15.15675816
O        1.99879647      10.81404716      15.85455334
O        2.82469187       0.62597495      17.23481199
O        1.91190193       6.42291642      17.42835939
O        8.55061380       5.85495829      15.87612203
O        8.01597540       8.55936948      16.07856842
O        5.86973798       5.00661930      16.05357527
O       13.72626677       3.18878161      16.04232045
O       11.21986095       4.80920839      16.03997889
O       13.24510995       8.00752260      16.99352141
O        6.67957207       1.28193322      17.02034052
O        7.79907242      11.38081509      16.06259950
