115
Lattice="13.75323 0.0 0.0 0.0 13.75323 0.0 0.0 0.0 23.89" Properties=species:S:1:pos:R:3 entry_id=2 rank=3 energy=-573.3539428710938 parent_id=1 pbc="T T F"
Pd       0.00000000       0.00000000      10.00000000
Pd       2.75064538       0.00000000      10.00000000
Pd       5.50129076       0.00000000      10.00000000
Pd       8.25193614       0.00000000      10.00000000
Pd      11.00258152       0.00000000      10.00000000
Pd       0.00000000       2.75064538      10.00000000
Pd       2.75064538       2.75064538      10.00000000
Pd       5.50129076       2.75064538      10.00000000
Pd       8.25193614       2.75064538      10.00000000
Pd      11.00258152       2.75064538      10.00000000
Pd       0.00000000       5.50129076      10.00000000
Pd       2.75064538       5.50129076      10.00000000
Pd       5.50129076       5.50129076      10.00000000
Pd       8.25193614       5.50129076      10.00000000
Pd      11.00258152       5.50129076      10.00000000
Pd       0.00000000       8.25193614      10.00000000
Pd       2.75064538       8.25193614      10.00000000
Pd       5.50129076       8.25193614      10.00000000
Pd       8.25193614       8.25193614      10.00000000
Pd      11.00258152       8.25193614      10.00000000
Pd       0.00000000      11.00258152      10.00000000
Pd       2.75064538      11.00258152      10.00000000
Pd       5.50129076      11.00258152      10.00000000
Pd       8.25193614      11.00258152      10.00000000
Pd      11.00258152      11.00258152      10.00000000
Pd       1.37692938       1.43476331      11.97460066
Pd       4.12093275       1.38855959      11.96463738
Pd       6.85577015       1.37987553      11.99068886
Pd       9.57512057       1.39592898      11.89594876
Pd      12.38684272       1.37174114      11.92044161
Pd       1.37481400       4.16702734      12.02219830
Pd       4.09558169       4.14076252      11.99410681
Pd       6.85558965       4.10317543      11.99337854
Pd       9.56728621       4.13975942      11.94281254
Pd      12.36578195       4.13265160      11.93417299
Pd       1.37110082       6.89256210      11.94010419
Pd       4.13935064       6.87026939      11.96482277
Pd       6.87097415       6.85831372      11.95140951
Pd       9.64205429       6.82915781      11.94515418
Pd      12.39111484       6.85622887      11.94896407
Pd       1.37503465       9.67303481      11.95612477
Pd       4.11777592       9.66324146      11.95099537
Pd       6.89476706       9.64088005      11.95142944
Pd       9.64982872       9.59779534      11.89439304
Pd      12.42487279       9.60955999      11.94161946
Pd       1.39603347      12.42319440      11.97016637
Pd       4.12795709      12.40822364      11.96039268
Pd       6.86816975      12.39901143      11.97280504
Pd       9.63028672      12.36702810      11.91406436
Pd      12.44795381      12.34846789      11.96188005
Pd       0.14445195       0.10200038      13.98740751
Pd       2.83607341       0.07713752      13.99231745
Pd       5.49858931      13.69998527      14.06472222
Pd       8.18675115       0.05876842      13.90447189
Pd      11.15334595      13.71884088      13.84517777
Pd      13.64962710       2.85568179      13.98362982
Pd       2.64096680       2.79387971      14.03956324
Pd       5.54292635       2.67382223      13.95891048
Pd       8.26267214       2.75526470      14.11817326
Pd      10.93768177       2.66737712      13.94900994
Pd       0.01864759       5.61077251      14.01906823
Pd       2.73646308       5.56923402      14.14947199
Pd       5.47373084       5.44809701      14.00315229
Pd       8.28212836       5.50038444      13.92468291
Pd      11.03829566       5.37641273      14.00905787
Pd      13.65210730       8.34129654      13.89388703
Pd       2.69457652       8.25434572      13.89233241
Pd       5.42161609       8.22509370      13.99636026
Pd       8.22976860       8.29403785      13.96040023
Pd      10.96818431       8.13968281      14.06067521
Pd       0.05505807      11.03555037      14.10574049
Pd       2.79480307      11.09471086      13.93564702
Pd       5.50749830      10.97543009      13.87852016
Pd       8.23759700      11.06573391      13.98261794
Pd      11.06149485      10.92112062      13.88413027
Pd      12.27299981       6.38701550      16.33872538
Pd       9.59828036       9.76627453      16.03100959
Pd       2.25518609      12.63410078      16.43873249
Pd       1.16955082       7.62949266      15.97522405
Pd      12.32538833       9.48577665      16.20036108
Pd       9.70341485       1.06910214      16.20834435
Pd       4.68429592       0.93494688      16.80423346
Pd       6.38239830       9.93852740      16.23453917
Pd       4.76312368      12.05827056      16.19347244
Pd      12.58445907      12.51941426      16.05771581
Pd       0.88294302       4.90965949      16.59773281
Pd       3.93075215       4.36263332      16.54717131
Pd      11.81701598       2.92899450      16.75659843
Pd       3.54496304       9.60629321      16.07575316
Pd       6.86300696       6.83729180      16.16062913
Pd       7.19616861      13.25639250      16.40570717
Pd       9.07166042       4.14679607      16.53146694
Pd       6.63655280       3.17348934      16.43117760
Pd       1.37065404       1.84731390      16.59591275
Pd       3.62072884       6.99771710      16.77349561
O        9.94337336       2.62593463      17.39081006
O       11.16000802      11.08372705      15.96974511
O        0.43478462      13.72547130      16.02525703
O       12.28883015       1.21389550      17.67643756
O       11.50070552       0.19468289      17.23315751
O        5.21751426       8.14958027      16.23961698
O        4.14039817       2.59869730      15.45319203
O        2.25193860       3.55782020      17.25843813
O        9.67948591      13.24256108      15.11163181
O        1.91432073      10.80161100      15.81348639
O        2.77873867       0.60254828      17.21795980
O        1.88257372       6.40455891      17.43490378
O        8.51998800       5.85994099      15.88596269
O        7.97547988       8.56922011      16.08473544
O        5.83778172       5.01680730      16.05376262
O       13.68432001       3.17198906      16.04913250
O       11.17614471       4.77335691      16.03133248
O       13.21813286       7.95847991      16.99174155
O        6.62553889       1.28584853      17.00114643
O        7.75087209      11.38190429      16.07161781
