115
Lattice="13.75323 0.0 0.0 0.0 13.75323 0.0 0.0 0.0 23.89" Properties=species:S:1:pos:R:3 entry_id=3 rank=4 energy=-573.3524169921875 parent_id=2 pbc="T T F"
Pd       0.00000000       0.00000000      10.00000000
Pd       2.75064538       0.00000000      10.00000000
Pd       5.50129076       0.00000000      10.00000000
Pd       8.25193614       0.00000000      10.00000000
Pd      11.00258152       0.00000000      10.00000000
Pd       0.00000000       2.75064538      10.00000000
Pd       2.75064538       2.75064538      10.00000000
Pd       5.50129076       2.75064538      10.00000000
Pd       8.25193614       2.75064538      10.00000000
Pd      11.00258152       2.75064538      10.00000000
Pd       0.00000000       5.50129076      10.00000000
Pd       2.75064538       5.50129076      10.00000000
Pd       5.50129076       5.50129076      10.00000000
Pd       8.25193614       5.50129076      10.00000000
Pd      11.00258152       5.50129076      10.00000000
Pd       0.00000000       8.25193614      10.00000000
Pd       2.75064538       8.25193614      10.00000000
Pd       5.50129076       8.25193614      10.00000000
Pd       8.25193614       8.25193614      10.00000000
Pd      11.00258152       8.25193614      10.00000000
Pd       0.00000000      11.00258152      10.00000000
Pd       2.75064538      11.00258152      10.00000000
Pd       5.50129076      11.00258152      10.00000000
Pd       8.25193614      11.00258152      10.00000000
Pd      11.00258152      11.00258152      10.00000000
Pd       1.37891108       1.43120283      11.97850079
Pd       4.12112845       1.38690360      11.96660673
Pd       6.85507849       1.37686069      11.99147596
Pd       9.57512057       1.39592898      11.89594876
Pd      12.38684272       1.37174114      11.92044161
Pd       1.37606219       4.16462126      12.02064432
Pd       4.09522983       4.14020092      11.99487884
Pd       6.85476344       4.10038844      11.99334053
Pd       9.56728621       4.13975942      11.94281254
Pd      12.36578195       4.13265160      11.93417299
Pd       1.37110082       6.89256210      11.94010419
Pd       4.13935064       6.87026939      11.96482277
Pd       6.87097415       6.85831372      11.95140951
Pd       9.64205429       6.82915781      11.94515418
Pd      12.39111484       6.85622887      11.94896407
Pd       1.37569882       9.67337828      11.95662266
Pd       4.11777592       9.66324146      11.95099537
Pd       6.89476706       9.64088005      11.95142944
Pd       9.64982872       9.59779534      11.89439304
Pd      12.42487279       9.60955999      11.94161946
Pd       1.39639700      12.42163531      11.97104646
Pd       4.12712518      12.40656983      11.95907042
Pd       6.86816975      12.39901143      11.97280504
Pd       9.63028672      12.36702810      11.91406436
Pd      12.44628175      12.35044573      11.95928994
Pd       0.14303155       0.09744804      13.99084311
Pd       2.83355542       0.07607501      13.99891776
Pd       5.49534992      13.69530342      14.06708412
Pd       8.18992785       0.05893885      13.90868608
Pd      11.15452981      13.71946967      13.84823949
Pd      13.65492104       2.85113169      13.98198788
Pd       2.64663777       2.79449818      14.04237150
Pd       5.54474969       2.67007618      13.96133875
Pd       8.26706158       2.75755380      14.11495660
Pd      10.94189450       2.66842704      13.95407264
Pd       0.01716519       5.60575141      14.01720308
Pd       2.73434142       5.57185722      14.15208859
Pd       5.47158107       5.44655965      14.00195811
Pd       8.28156263       5.49772547      13.92513748
Pd      11.03852590       5.37679269      14.01313997
Pd      13.65409451       8.34023254      13.89413796
Pd       2.70229392       8.25774503      13.88475369
Pd       5.42395346       8.22222792      14.00166082
Pd       8.22927020       8.29263807      13.95855251
Pd      10.96863994       8.14145136      14.06292140
Pd       0.05639443      11.03686040      14.09966534
Pd       2.79812263      11.09592293      13.94173022
Pd       5.51122632      10.97328590      13.87636278
Pd       8.24661864      11.06540109      13.97732136
Pd      11.06623346      10.92724651      13.88839856
Pd      12.29004322       6.39752884      16.33598549
Pd       9.60302443       9.76164600      16.02941987
Pd       2.26158596      12.62603639      16.45193268
Pd       1.18722836       7.61034861      15.96023793
Pd      12.33392042       9.49748950      16.19405024
Pd       9.71656133       1.09737611      16.23494816
Pd       4.69007469       0.92341659      16.81845316
Pd       6.39146558       9.93393282      16.22629808
Pd       4.76666983      12.04955370      16.19436330
Pd      12.58623965      12.52312657      16.06332968
Pd       0.89625709       4.90013159      16.59674773
Pd       3.93430493       4.35362230      16.55275833
Pd      11.83408767       2.93907100      16.77133310
Pd       3.55381455       9.59530018      16.07907051
Pd       6.86577351       6.82987615      16.16046818
Pd       7.19898649      13.25125209      16.40190146
Pd       9.08244904       4.15102374      16.54868002
Pd       6.64600020       3.16623018      16.42785117
Pd       1.37973293       1.83644191      16.60349375
Pd       3.63038733       6.99036534      16.78684166
O        9.96607008       2.64601243      17.42558782
O       11.15568863      11.08951625      15.97624659
O        0.44302437      13.72183307      16.02839661
O       12.31002746       1.22219246      17.68966863
O       11.51634377       0.20479315      17.24797874
O        5.22321711       8.14565725      16.24754096
O        4.14479683       2.59193813      15.45797356
O        2.25944055       3.54560617      17.26865205
O        9.68454334      13.27984620      15.13030514
O        1.93089825      10.79418299      15.82217182
O        2.78464286       0.59255377      17.23873387
O        1.88950091       6.39726642      17.43784029
O        8.52342087       5.85295602      15.88592210
O        7.98183841       8.56056528      16.08150983
O        5.83954589       5.00942725      16.05258574
O       13.69716928       3.16506804      16.04706332
O       11.18980156       4.78425210      16.03929306
O       13.24141263       7.97362711      16.97645866
O        6.63165268       1.27862559      17.00188150
O        7.75816394      11.37929839      16.05806975
