115
Lattice="13.75323 0.0 0.0 0.0 13.75323 0.0 0.0 0.0 23.89" Properties=species:S:1:pos:R:3 entry_id=1 rank=13 energy=-573.1788940429688 parent_id=0 pbc="T T F"
Pd       0.00000000       0.00000000      10.00000000
Pd       2.75064538       0.00000000      10.00000000
Pd       5.50129076       0.00000000      10.00000000
Pd       8.25193614       0.00000000      10.00000000
Pd      11.00258152       0.00000000      10.00000000
Pd       0.00000000       2.75064538      10.00000000
Pd       2.75064538       2.75064538      10.00000000
Pd       5.50129076       2.75064538      10.00000000
Pd       8.25193614       2.75064538      10.00000000
Pd      11.00258152       2.75064538      10.00000000
Pd       0.00000000       5.50129076      10.00000000
Pd       2.75064538       5.50129076      10.00000000
Pd       5.50129076       5.50129076      10.00000000
Pd       8.25193614       5.50129076      10.00000000
Pd      11.00258152       5.50129076      10.00000000
Pd       0.00000000       8.25193614      10.00000000
Pd       2.75064538       8.25193614      10.00000000
Pd       5.50129076       8.25193614      10.00000000
Pd       8.25193614       8.25193614      10.00000000
Pd      11.00258152       8.25193614      10.00000000
Pd       0.00000000      11.00258152      10.00000000
Pd       2.75064538      11.00258152      10.00000000
Pd       5.50129076      11.00258152      10.00000000
Pd       8.25193614      11.00258152      10.00000000
Pd      11.00258152      11.00258152      10.00000000
Pd       1.34271056       1.43380062      12.02837784
Pd       4.08103885       1.41280282      11.95310077
Pd       6.81615092       1.39312807      11.96886147
Pd       9.57512057       1.39592898      11.89594876
Pd      12.38684272       1.37174114      11.92044161
Pd       1.34648287       4.14956034      12.01412317
Pd       4.07251962       4.15538650      12.00873820
Pd       6.80674646       4.12658796      12.01631663
Pd       9.56728621       4.13975942      11.94281254
Pd      12.36578195       4.13265160      11.93417299
Pd       1.37110082       6.89256210      11.94010419
Pd       4.13935064       6.87026939      11.96482277
Pd       6.87097415       6.85831372      11.95140951
Pd       9.64205429       6.82915781      11.94515418
Pd      12.39111484       6.85622887      11.94896407
Pd       1.37333922       9.68129161      11.97327165
Pd       4.11777592       9.66324146      11.95099537
Pd       6.89476706       9.64088005      11.95142944
Pd       9.64982872       9.59779534      11.89439304
Pd      12.42487279       9.60955999      11.94161946
Pd       1.36483264      12.45602636      12.00785192
Pd       4.09328641      12.40719615      11.94754823
Pd       6.86816975      12.39901143      11.97280504
Pd       9.63028672      12.36702810      11.91406436
Pd      12.42120512      12.33961066      11.98560729
Pd       0.05699464       0.05932552      14.05895786
Pd       2.79133613       0.11242959      14.06752820
Pd       5.48792473      13.70832124      13.93675680
Pd       8.15575622       0.00919063      13.87066964
Pd      11.09888970      13.73374768      13.86528315
Pd      13.53945190       2.80720933      14.07698227
Pd       2.51652998       2.94833662      14.10767428
Pd       5.40393048       2.68882852      14.01460738
Pd       8.19431913       2.72669767      13.95691026
Pd      10.87748072       2.68851262      13.92918283
Pd       0.01992231       5.53702784      13.99854747
Pd       2.73417290       5.66026214      14.04721316
Pd       5.47948639       5.54396417      14.12057332
Pd       8.25358297       5.47282921      14.01787194
Pd      11.02406010       5.39449805      13.97329536
Pd       0.05067729       8.25899330      13.95712539
Pd       2.85854596       8.37091213      13.89770994
Pd       5.64342457       8.29035434      13.94222651
Pd       8.36049525       8.28167976      13.95454924
Pd      11.08851986       8.21641874      13.93867485
Pd      13.67454225      10.97514464      14.12891382
Pd       2.74436820      11.13635264      13.94336868
Pd       5.45553226      10.98469260      13.88815819
Pd       8.14813686      11.03175081      14.10210893
Pd      10.92173631      10.93380393      13.91033168
Pd      12.50765775       6.54165393      16.31430553
Pd       9.26060163       9.69124540      16.32001944
Pd       1.88344123      12.64115165      16.47559297
Pd       1.58306024       7.35865461      15.97645791
Pd      12.33161884       9.38721953      16.19792261
Pd       9.31577205       1.16518383      16.10609567
Pd       4.32588212       1.08552077      17.00340143
Pd       6.04856387      10.21448546      16.44940273
Pd       4.41207217      12.25526316      16.01486712
Pd      12.22478170      12.41038896      16.11703682
Pd       0.74359039       4.66470494      16.55185498
Pd       3.65217162       4.70400213      16.48139224
Pd      11.17329160       3.19476312      16.68106977
Pd       3.01954826       9.82734850      16.30990064
Pd       7.25521237       7.07370378      16.27099385
Pd       6.87557188      13.49058884      16.34623255
Pd       9.86634387       7.02588243      15.97688015
Pd       7.18737141       3.36112756      16.44908213
Pd       0.96124060       1.71878015      16.72922756
Pd       4.42489479       7.20912704      16.00930635
O        9.09956683       2.84230486      17.09146549
O       10.94576221      10.81319346      15.99404152
O        0.02046164      13.67260175      16.13064343
O       11.65313964       1.49988034      17.68308569
O       10.97362962       0.42916781      17.26370251
O        4.61340888       8.95621604      17.01813275
O        3.83752160       1.66614192      15.04218356
O        1.98925185       3.27881663      17.32362725
O        9.62630222      13.26552611      15.14372638
O        1.43995000      10.89358087      15.66283566
O        2.44694746       0.53724209      17.38582090
O        2.18389593       5.85199337      17.21739757
O        7.84156534       5.19771169      15.98394373
O        7.55844909       8.89301743      16.94359592
O        5.37128789       4.00401694      15.66314071
O       13.22921707       3.11310975      16.13839830
O       11.08594129       5.16803917      16.03036003
O       13.62065448       8.05558494      16.86413278
O        6.25839532       1.53440492      16.90938312
O        7.43213547      11.59897192      16.03153521
