115
Lattice="13.75323 0.0 0.0 0.0 13.75323 0.0 0.0 0.0 23.89" Properties=species:S:1:pos:R:3 entry_id=12 rank=2 energy=-573.3875122070312 parent_id=11 pbc="T T F"
Pd       0.00000000       0.00000000      10.00000000
Pd       2.75064538       0.00000000      10.00000000
Pd       5.50129076       0.00000000      10.00000000
Pd       8.25193614       0.00000000      10.00000000
Pd      11.00258152       0.00000000      10.00000000
Pd       0.00000000       2.75064538      10.00000000
Pd       2.75064538       2.75064538      10.00000000
Pd       5.50129076       2.75064538      10.00000000
Pd       8.25193614       2.75064538      10.00000000
Pd      11.00258152       2.75064538      10.00000000
Pd       0.00000000       5.50129076      10.00000000
Pd       2.75064538       5.50129076      10.00000000
Pd       5.50129076       5.50129076      10.00000000
Pd       8.25193614       5.50129076      10.00000000
Pd      11.00258152       5.50129076      10.00000000
Pd       0.00000000       8.25193614      10.00000000
Pd       2.75064538       8.25193614      10.00000000
Pd       5.50129076       8.25193614      10.00000000
Pd       8.25193614       8.25193614      10.00000000
Pd      11.00258152       8.25193614      10.00000000
Pd       0.00000000      11.00258152      10.00000000
Pd       2.75064538      11.00258152      10.00000000
Pd       5.50129076      11.00258152      10.00000000
Pd       8.25193614      11.00258152      10.00000000
Pd      11.00258152      11.00258152      10.00000000
Pd       1.37978755       1.40721490      11.97548543
Pd       4.11965106       1.38195657      11.96757520
Pd       6.85854917       1.38326011      11.98813237
Pd       9.57512057       1.39592898      11.89594876
Pd      12.38684272       1.37174114      11.92044161
Pd       1.38068916       4.13854667      11.99684630
Pd       4.10440484       4.13410319      11.98661666
Pd       6.85844217       4.10444103      11.99252215
Pd       9.56728621       4.13975942      11.94281254
Pd      12.36578195       4.13265160      11.93417299
Pd       1.37110082       6.89256210      11.94010419
Pd       4.13935064       6.87026939      11.96482277
Pd       6.87097415       6.85831372      11.95140951
Pd       9.64205429       6.82915781      11.94515418
Pd      12.39111484       6.85622887      11.94896407
Pd       1.37194439       9.64472788      11.97701901
Pd       4.11777592       9.66324146      11.95099537
Pd       6.89476706       9.64088005      11.95142944
Pd       9.64982872       9.59779534      11.89439304
Pd      12.42487279       9.60955999      11.94161946
Pd       1.39522888      12.39901894      11.97308921
Pd       4.11840123      12.40655838      11.96114749
Pd       6.86816975      12.39901143      11.97280504
Pd       9.63028672      12.36702810      11.91406436
Pd      12.44792060      12.34801923      11.95913019
Pd       0.15774685       0.06008134      13.98557293
Pd       2.85273441       0.04339816      14.02197362
Pd       5.51847346      13.73079334      14.04142918
Pd       8.20050095       0.05675784      13.90807999
Pd      11.16080422      13.72697900      13.84590225
Pd      13.65233042       2.81148511      13.96939635
Pd       2.64850618       2.75442691      14.03048109
Pd       5.54511473       2.69368576      13.96222148
Pd       8.26336958       2.75055084      14.12511379
Pd      10.93684493       2.67593504      13.95245918
Pd       0.00211378       5.56735967      13.94551958
Pd       2.73003590       5.52479379      14.07020722
Pd       5.47268975       5.46504251      14.00038326
Pd       8.27767661       5.49259211      13.91989896
Pd      11.02136184       5.39315017      13.99398315
Pd      13.68517013       8.25365843      13.98445671
Pd       2.68050652       8.23438875      13.95428508
Pd       5.42116016       8.24501137      13.98808050
Pd       8.23922083       8.29125173      13.95568213
Pd      10.98396831       8.16246157      14.04431801
Pd       0.02716716      10.99031129      14.09552084
Pd       2.75687132      11.07503414      13.94848324
Pd       5.47972569      10.99627924      13.87169598
Pd       8.22236571      11.06714195      13.98318043
Pd      11.04587722      10.94020731      13.88060997
Pd      12.28257596       6.43092657      16.27662158
Pd       9.60441697       9.78335349      16.02109727
Pd       2.18964478      12.59958201      16.45522123
Pd       1.24418429       8.61859741      16.42284919
Pd      12.29851544       9.51455695      16.21765014
Pd       9.72552924       1.09028660      16.22981374
Pd       4.65442757       0.97365617      16.82493539
Pd       6.39529796       9.95656350      16.19642519
Pd       4.75170967      12.15143273      16.15222738
Pd      12.58692370      12.53728063      16.06593140
Pd       0.85124980       5.04587927      16.42478953
Pd       3.92267159       4.42887499      16.50351335
Pd      11.84078203       2.96230783      16.75253582
Pd       3.66969810       9.72450024      16.07611984
Pd       6.91646066       6.83414034      16.15293483
Pd       7.19395962      13.29903153      16.40767656
Pd       9.09377895       4.14582062      16.53558756
Pd       6.63544678       3.19668532      16.43662353
Pd       1.37022965       1.90935849      16.57254349
Pd       3.53813090       7.07598737      16.46154714
O        9.97615252       2.64264008      17.41283829
O       11.14681692      11.11746347      15.97177985
O        0.43014273      13.74799462      16.02664111
O       12.31770099       1.24854508      17.67842692
O       11.52116744       0.22770261      17.24966126
O        5.29574759       8.09212498      16.20568667
O        4.14248211       2.62014368      15.46293291
O        2.21563381       3.68371691      17.18141829
O        9.69453577      13.27225171      15.12661459
O        1.80797712      10.66825550      15.90345303
O        2.74333997       0.60451385      17.17737177
O        1.71633398       6.71325343      17.02192180
O        8.56465921       5.85655183      15.87571783
O        8.00289571       8.57979846      16.08527726
O        5.85661588       5.04052036      16.05450398
O       13.69637836       3.23650381      16.02133038
O       11.19851258       4.79625062      16.00816494
O       13.16126403       7.98936432      17.03239669
O        6.59939010       1.31435090      17.01891042
O        7.74406039      11.42757779      16.06023527
