115
Lattice="13.75323 0.0 0.0 0.0 13.75323 0.0 0.0 0.0 23.89" Properties=species:S:1:pos:R:3 entry_id=7 rank=12 energy=-573.18017578125 parent_id=6 pbc="T T F"
Pd       0.00000000       0.00000000      10.00000000
Pd       2.75064538       0.00000000      10.00000000
Pd       5.50129076       0.00000000      10.00000000
Pd       8.25193614       0.00000000      10.00000000
Pd      11.00258152       0.00000000      10.00000000
Pd       0.00000000       2.75064538      10.00000000
Pd       2.75064538       2.75064538      10.00000000
Pd       5.50129076       2.75064538      10.00000000
Pd       8.25193614       2.75064538      10.00000000
Pd      11.00258152       2.75064538      10.00000000
Pd       0.00000000       5.50129076      10.00000000
Pd       2.75064538       5.50129076      10.00000000
Pd       5.50129076       5.50129076      10.00000000
Pd       8.25193614       5.50129076      10.00000000
Pd      11.00258152       5.50129076      10.00000000
Pd       0.00000000       8.25193614      10.00000000
Pd       2.75064538       8.25193614      10.00000000
Pd       5.50129076       8.25193614      10.00000000
Pd       8.25193614       8.25193614      10.00000000
Pd      11.00258152       8.25193614      10.00000000
Pd       0.00000000      11.00258152      10.00000000
Pd       2.75064538      11.00258152      10.00000000
Pd       5.50129076      11.00258152      10.00000000
Pd       8.25193614      11.00258152      10.00000000
Pd      11.00258152      11.00258152      10.00000000
Pd       1.34714819       1.43848786      12.02727431
Pd       4.08476132       1.41520575      11.95121502
Pd       6.81611036       1.39882655      11.96767816
Pd       9.57512057       1.39592898      11.89594876
Pd      12.38684272       1.37174114      11.92044161
Pd       1.34278346       4.15031603      12.02134351
Pd       4.06519839       4.15650685      12.01494574
Pd       6.80114651       4.13190669      12.01562364
Pd       9.56728621       4.13975942      11.94281254
Pd      12.36578195       4.13265160      11.93417299
Pd       1.37110082       6.89256210      11.94010419
Pd       4.13935064       6.87026939      11.96482277
Pd       6.87097415       6.85831372      11.95140951
Pd       9.64205429       6.82915781      11.94515418
Pd      12.39111484       6.85622887      11.94896407
Pd       1.37343679       9.68445162      11.97323184
Pd       4.11777592       9.66324146      11.95099537
Pd       6.89476706       9.64088005      11.95142944
Pd       9.64982872       9.59779534      11.89439304
Pd      12.42487279       9.60955999      11.94161946
Pd       1.36759562      12.45839951      12.00645911
Pd       4.09664540      12.40963976      11.94826061
Pd       6.86816975      12.39901143      11.97280504
Pd       9.63028672      12.36702810      11.91406436
Pd      12.42432851      12.33733016      11.98367375
Pd       0.06324378       0.07293621      14.05460605
Pd       2.79584999       0.11588425      14.06574307
Pd       5.48958778      13.71528297      13.94183853
Pd       8.15253795       0.01080086      13.86629517
Pd      11.10317039      13.72784966      13.85917379
Pd      13.54253196       2.81899532      14.08131993
Pd       2.51846985       2.94905684      14.12462244
Pd       5.40512429       2.69930112      14.01653318
Pd       8.19692255       2.72880165      13.95380078
Pd      10.88274870       2.68255127      13.92733688
Pd       0.01682347       5.54971716      14.00455852
Pd       2.72852377       5.66563010      14.04870403
Pd       5.47285282       5.55068484      14.12687199
Pd       8.24791468       5.47411616      14.01402440
Pd      11.01945491       5.38744764      13.97270415
Pd       0.05515109       8.27423540      13.95713220
Pd       2.86077409       8.37515883      13.89634697
Pd       5.64385835       8.29369314      13.93917007
Pd       8.36322103       8.28329403      13.95599873
Pd      11.09313529       8.21081467      13.93717697
Pd      13.68323091      10.99314174      14.13642521
Pd       2.74725570      11.14072617      13.94357713
Pd       5.45609614      10.98877288      13.88995805
Pd       8.15081981      11.03330653      14.10144830
Pd      10.93000939      10.92874931      13.91060190
Pd      12.50438145       6.54365469      16.31483648
Pd       9.28037375       9.70045901      16.31623648
Pd       1.89753223      12.66023868      16.48347351
Pd       1.58662716       7.37984752      15.97964518
Pd      12.33477935       9.39565520      16.19204978
Pd       9.32384312       1.16780003      16.09135887
Pd       4.34632732       1.08922093      17.00886367
Pd       6.06271148      10.21716011      16.44884035
Pd       4.42244765      12.25657050      16.02316994
Pd      12.24151172      12.43608448      16.11776379
Pd       0.74837403       4.68285170      16.55904740
Pd       3.64582588       4.71866583      16.48959954
Pd      11.18532789       3.19321638      16.67477792
Pd       3.02901612       9.83881232      16.31146831
Pd       7.26113316       7.08572179      16.27539031
Pd       6.88806322      13.49167358      16.35044003
Pd       9.86682414       7.02509342      15.97128874
Pd       7.18848596       3.36780067      16.44535409
Pd       0.98190256       1.74016745      16.73574009
Pd       4.42649198       7.21943132      16.01046101
O        9.10922458       2.84738411      17.07263198
O       10.96269469      10.83580637      15.99414140
O        0.04046904      13.69742628      16.12708224
O       11.66485189       1.49357518      17.66885223
O       10.98759394       0.42261587      17.24489889
O        4.62236472       8.96537863      17.01732897
O        3.84942224       1.66279314      15.04673058
O        2.00300432       3.30393905      17.33749605
O        9.62639717      13.26468666      15.13231486
O        1.45136801      10.91383347      15.67155370
O        2.46483047       0.55582055      17.39358432
O        2.18201604       5.87713569      17.22607668
O        7.83252501       5.20678195      15.97876948
O        7.57809818       8.90258386      16.94768171
O        5.36388997       4.01294965      15.67049057
O       13.24335329       3.12359665      16.14409902
O       11.08916591       5.16354101      16.02870419
O       13.61440276       8.05758514      16.86119245
O        6.27690777       1.53800204      16.91486690
O        7.44586628      11.60088830      16.03420242
