115
Lattice="13.75323 0.0 0.0 0.0 13.75323 0.0 0.0 0.0 23.89" Properties=species:S:1:pos:R:3 entry_id=9 rank=9 energy=-573.3436279296875 parent_id=8 pbc="T T F"
Pd       0.00000000       0.00000000      10.00000000
Pd       2.75064538       0.00000000      10.00000000
Pd       5.50129076       0.00000000      10.00000000
Pd       8.25193614       0.00000000      10.00000000
Pd      11.00258152       0.00000000      10.00000000
Pd       0.00000000       2.75064538      10.00000000
Pd       2.75064538       2.75064538      10.00000000
Pd       5.50129076       2.75064538      10.00000000
Pd       8.25193614       2.75064538      10.00000000
Pd      11.00258152       2.75064538      10.00000000
Pd       0.00000000       5.50129076      10.00000000
Pd       2.75064538       5.50129076      10.00000000
Pd       5.50129076       5.50129076      10.00000000
Pd       8.25193614       5.50129076      10.00000000
Pd      11.00258152       5.50129076      10.00000000
Pd       0.00000000       8.25193614      10.00000000
Pd       2.75064538       8.25193614      10.00000000
Pd       5.50129076       8.25193614      10.00000000
Pd       8.25193614       8.25193614      10.00000000
Pd      11.00258152       8.25193614      10.00000000
Pd       0.00000000      11.00258152      10.00000000
Pd       2.75064538      11.00258152      10.00000000
Pd       5.50129076      11.00258152      10.00000000
Pd       8.25193614      11.00258152      10.00000000
Pd      11.00258152      11.00258152      10.00000000
Pd       1.38078807       1.43707033      11.97550512
Pd       4.12430830       1.39459638      11.96427696
Pd       6.85991129       1.38284963      11.99049585
Pd       9.57512057       1.39592898      11.89594876
Pd      12.38684272       1.37174114      11.92044161
Pd       1.37304927       4.17014880      12.01771884
Pd       4.09682181       4.14298607      11.99609060
Pd       6.85705657       4.10541275      11.99407516
Pd       9.56728621       4.13975942      11.94281254
Pd      12.36578195       4.13265160      11.93417299
Pd       1.37110082       6.89256210      11.94010419
Pd       4.13935064       6.87026939      11.96482277
Pd       6.87097415       6.85831372      11.95140951
Pd       9.64205429       6.82915781      11.94515418
Pd      12.39111484       6.85622887      11.94896407
Pd       1.37792514       9.67546176      11.96076735
Pd       4.11777592       9.66324146      11.95099537
Pd       6.89476706       9.64088005      11.95142944
Pd       9.64982872       9.59779534      11.89439304
Pd      12.42487279       9.60955999      11.94161946
Pd       1.39520587      12.42770277      11.97086734
Pd       4.12548304      12.41209961      11.95522428
Pd       6.86816975      12.39901143      11.97280504
Pd       9.63028672      12.36702810      11.91406436
Pd      12.44901530      12.35028677      11.95794615
Pd       0.16352458       0.11059507      13.99748282
Pd       2.85299763       0.09157494      13.99715481
Pd       5.51502151      13.71865444      14.05745207
Pd       8.20284002       0.05997120      13.90478544
Pd      11.17251106      13.72391328      13.84539969
Pd      13.64975196       2.86237358      13.97665998
Pd       2.63837293       2.80740987      14.04233793
Pd       5.54845872       2.68614474      13.96186887
Pd       8.26871960       2.75794263      14.12530259
Pd      10.93985228       2.67584967      13.94742074
Pd       0.01811979       5.62707306      14.01746404
Pd       2.73866393       5.58116151      14.12758933
Pd       5.47909305       5.46212459      14.00152458
Pd       8.28602029       5.50089387      13.92439308
Pd      11.04077448       5.38978743      14.00656440
Pd      13.64767997       8.34906980      13.89374390
Pd       2.68691338       8.26906483      13.91702710
Pd       5.42132827       8.23592812      13.98650727
Pd       8.23428578       8.29870283      13.95895023
Pd      10.96947240       8.15335942      14.06912329
Pd       0.05237197      11.04775431      14.10241955
Pd       2.78266636      11.11270199      13.94042955
Pd       5.49621584      10.98925608      13.87239808
Pd       8.23459044      11.07067781      13.98322956
Pd      11.06229898      10.93146179      13.88744618
Pd      12.26585133       6.42262939      16.34669810
Pd       9.61511260       9.79274440      16.03057990
Pd       2.29345833      12.70536212      16.46685798
Pd       1.14318656       7.74831360      16.02361438
Pd      12.33577790       9.51621368      16.21547639
Pd       9.72406839       1.10035063      16.21362367
Pd       4.70177612       0.99653902      16.83331017
Pd       6.40837923       9.98212269      16.21923817
Pd       4.79519818      12.11786088      16.18800448
Pd      12.60650534      12.55294947      16.06653351
Pd       0.88875346       4.96769650      16.56662065
Pd       3.93409272       4.40724911      16.53608040
Pd      11.82752083       2.96939240      16.75498612
Pd       3.59083170       9.66337963      16.07721888
Pd       6.87382048       6.86868359      16.15022590
Pd       7.21997419      13.30589507      16.41372215
Pd       9.07533998       4.17661941      16.53284011
Pd       6.64022047       3.20650698      16.43740184
Pd       1.37825238       1.90364229      16.60433149
Pd       3.62017810       7.04546322      16.71360244
O        9.95468986       2.66054389      17.39451244
O       11.17779740      11.11780583      15.97140658
O        0.45794549       0.01096654      16.03904882
O       12.31214863       1.25838653      17.67606681
O       11.52496884       0.23425134      17.24065982
O        5.23532475       8.18967399      16.20864046
O        4.14211468       2.63317689      15.45221147
O        2.25074232       3.62179491      17.25208504
O        9.70299245      13.27578499      15.11869874
O        1.97603978      10.86797056      15.85278597
O        2.79366453       0.67891835      17.24757173
O        1.88845215       6.46337269      17.39957624
O        8.52847358       5.88760168      15.88104003
O        7.99189210       8.59719099      16.08331014
O        5.84450271       5.04796341      16.05234410
O       13.69060509       3.21840600      16.03638005
O       11.17834391       4.80618097      16.02870981
O       13.18838586       7.98774810      17.05082250
O        6.64689712       1.32635712      17.02657084
O        7.76922426      11.43181346      16.06635794
