115
Lattice="13.75323 0.0 0.0 0.0 13.75323 0.0 0.0 0.0 23.89" Properties=species:S:1:pos:R:3 entry_id=5 rank=6 energy=-573.348876953125 parent_id=2 pbc="T T F"
Pd       0.00000000       0.00000000      10.00000000
Pd       2.75064538       0.00000000      10.00000000
Pd       5.50129076       0.00000000      10.00000000
Pd       8.25193614       0.00000000      10.00000000
Pd      11.00258152       0.00000000      10.00000000
Pd       0.00000000       2.75064538      10.00000000
Pd       2.75064538       2.75064538      10.00000000
Pd       5.50129076       2.75064538      10.00000000
Pd       8.25193614       2.75064538      10.00000000
Pd      11.00258152       2.75064538      10.00000000
Pd       0.00000000       5.50129076      10.00000000
Pd       2.75064538       5.50129076      10.00000000
Pd       5.50129076       5.50129076      10.00000000
Pd       8.25193614       5.50129076      10.00000000
Pd      11.00258152       5.50129076      10.00000000
Pd       0.00000000       8.25193614      10.00000000
Pd       2.75064538       8.25193614      10.00000000
Pd       5.50129076       8.25193614      10.00000000
Pd       8.25193614       8.25193614      10.00000000
Pd      11.00258152       8.25193614      10.00000000
Pd       0.00000000      11.00258152      10.00000000
Pd       2.75064538      11.00258152      10.00000000
Pd       5.50129076      11.00258152      10.00000000
Pd       8.25193614      11.00258152      10.00000000
Pd      11.00258152      11.00258152      10.00000000
Pd       1.37769870       1.43666905      11.98141131
Pd       4.11972050       1.39136905      11.96781881
Pd       6.85451061       1.37570569      11.99389572
Pd       9.57512057       1.39592898      11.89594876
Pd      12.38684272       1.37174114      11.92044161
Pd       1.37696624       4.16552636      12.02813310
Pd       4.09477583       4.14083857      11.99951573
Pd       6.85305651       4.09697422      11.99564493
Pd       9.56728621       4.13975942      11.94281254
Pd      12.36578195       4.13265160      11.93417299
Pd       1.37110082       6.89256210      11.94010419
Pd       4.13935064       6.87026939      11.96482277
Pd       6.87097415       6.85831372      11.95140951
Pd       9.64205429       6.82915781      11.94515418
Pd      12.39111484       6.85622887      11.94896407
Pd       1.37221506       9.67585658      11.95659986
Pd       4.11777592       9.66324146      11.95099537
Pd       6.89476706       9.64088005      11.95142944
Pd       9.64982872       9.59779534      11.89439304
Pd      12.42487279       9.60955999      11.94161946
Pd       1.39539701      12.42658468      11.97135661
Pd       4.12953337      12.41105829      11.95869529
Pd       6.86816975      12.39901143      11.97280504
Pd       9.63028672      12.36702810      11.91406436
Pd      12.45106965      12.34719878      11.96492901
Pd       0.14552991       0.09712048      13.99658888
Pd       2.83416606       0.08656182      13.99744261
Pd       5.49630341      13.69073347      14.06770064
Pd       8.18695343       0.05774740      13.91475593
Pd      11.15706142      13.71888247      13.84547699
Pd      13.65376544       2.85026825      13.98962906
Pd       2.64607216       2.80408584      14.05810862
Pd       5.53878378       2.66116105      13.97125078
Pd       8.26486390       2.75451203      14.11631108
Pd      10.94046345       2.66892868      13.95368621
Pd       0.02576446       5.60671673      14.02000124
Pd       2.74513467       5.57993645      14.15754775
Pd       5.48349699       5.43490587      14.00438846
Pd       8.29049383       5.49870452      13.92068648
Pd      11.05035128       5.37848705      14.01079004
Pd      13.64230488       8.33708076      13.89977821
Pd       2.68420895       8.26323449      13.88912810
Pd       5.40636707       8.21560932      14.00881916
Pd       8.21777349       8.28978950      13.96184593
Pd      10.95941018       8.14243781      14.06442307
Pd       0.06210597      11.03134713      14.11534727
Pd       2.80752415      11.10501619      13.93354126
Pd       5.51805367      10.96676644      13.87176948
Pd       8.24600926      11.06251891      13.97867966
Pd      11.07112223      10.92439496      13.88751079
Pd      12.28372727       6.38288875      16.34133233
Pd       9.60180659       9.76119851      16.03115213
Pd       2.26645124      12.64130323      16.45016219
Pd       1.17075575       7.63330214      15.98059013
Pd      12.32710157       9.48547086      16.21404958
Pd       9.71779004       1.06541205      16.21657444
Pd       4.69700940       0.91713923      16.82889526
Pd       6.38320837       9.91451077      16.22968851
Pd       4.76793302      12.04339613      16.18191940
Pd      12.59072522      12.51966827      16.06820555
Pd       0.88745998       4.90653424      16.60470061
Pd       3.93097859       4.36030404      16.56117136
Pd      11.82744375       2.92419437      16.77054543
Pd       3.52692604       9.60536276      16.07944588
Pd       6.86728571       6.81621227      16.16327596
Pd       7.20650041      13.23341810      16.41425507
Pd       9.07816527       4.13133055      16.53571348
Pd       6.64254377       3.14960427      16.43687363
Pd       1.38172085       1.84390159      16.62216917
Pd       3.61939281       6.99796512      16.79011455
O        9.95472924       2.61993151      17.40361183
O       11.16391885      11.08371772      15.97437222
O        0.44464486      13.72698749      16.03712880
O       12.29163852       1.20910469      17.69891599
O       11.50538934       0.18984225      17.24969778
O        5.22670701       8.12286126      16.24784231
O        4.14396221       2.59019738      15.47760057
O        2.25404021       3.56049547      17.28185905
O        9.68747348      13.24240339      15.11522165
O        1.90555601      10.82177412      15.80144661
O        2.79027099       0.60062119      17.25372651
O        1.87751542       6.40870549      17.44239713
O        8.52199623       5.83960523      15.88343282
O        7.98475931       8.54946508      16.08407511
O        5.83878137       4.99512328      16.05611748
O       13.69472254       3.16212000      16.05848998
O       11.18821907       4.76809092      16.03296646
O       13.22066945       7.95797043      17.00369705
O        6.64083824       1.26198322      17.01704646
O        7.75691486      11.35739928      16.06990764
