115
Lattice="13.75323 0.0 0.0 0.0 13.75323 0.0 0.0 0.0 23.89" Properties=species:S:1:pos:R:3 entry_id=15 rank=11 energy=-573.307861328125 parent_id=14 pbc="T T F"
Pd       0.00000000       0.00000000      10.00000000
Pd       2.75064538       0.00000000      10.00000000
Pd       5.50129076       0.00000000      10.00000000
Pd       8.25193614       0.00000000      10.00000000
Pd      11.00258152       0.00000000      10.00000000
Pd       0.00000000       2.75064538      10.00000000
Pd       2.75064538       2.75064538      10.00000000
Pd       5.50129076       2.75064538      10.00000000
Pd       8.25193614       2.75064538      10.00000000
Pd      11.00258152       2.75064538      10.00000000
Pd       0.00000000       5.50129076      10.00000000
Pd       2.75064538       5.50129076      10.00000000
Pd       5.50129076       5.50129076      10.00000000
Pd       8.25193614       5.50129076      10.00000000
Pd      11.00258152       5.50129076      10.00000000
Pd       0.00000000       8.25193614      10.00000000
Pd       2.75064538       8.25193614      10.00000000
Pd       5.50129076       8.25193614      10.00000000
Pd       8.25193614       8.25193614      10.00000000
Pd      11.00258152       8.25193614      10.00000000
Pd       0.00000000      11.00258152      10.00000000
Pd       2.75064538      11.00258152      10.00000000
Pd       5.50129076      11.00258152      10.00000000
Pd       8.25193614      11.00258152      10.00000000
Pd      11.00258152      11.00258152      10.00000000
Pd       1.37475108       1.42898499      11.98005264
Pd       4.11178382       1.37970491      11.96645324
Pd       6.84893111       1.38263037      11.98909837
Pd       9.57512057       1.39592898      11.89594876
Pd      12.38684272       1.37174114      11.92044161
Pd       1.36998018       4.16160102      12.02288113
Pd       4.08644898       4.14138348      11.99783578
Pd       6.84534414       4.10283145      11.99210033
Pd       9.56728621       4.13975942      11.94281254
Pd      12.36578195       4.13265160      11.93417299
Pd       1.37110082       6.89256210      11.94010419
Pd       4.13935064       6.87026939      11.96482277
Pd       6.87097415       6.85831372      11.95140951
Pd       9.64205429       6.82915781      11.94515418
Pd      12.39111484       6.85622887      11.94896407
Pd       1.37813199       9.67556768      11.95783416
Pd       4.11777592       9.66324146      11.95099537
Pd       6.89476706       9.64088005      11.95142944
Pd       9.64982872       9.59779534      11.89439304
Pd      12.42487279       9.60955999      11.94161946
Pd       1.40168557      12.42119822      11.97881729
Pd       4.12665960      12.39900935      11.97119847
Pd       6.86816975      12.39901143      11.97280504
Pd       9.63028672      12.36702810      11.91406436
Pd      12.44735109      12.35127691      11.95819682
Pd       0.14058143       0.09527862      13.99408343
Pd       2.83177912       0.06586087      14.00989524
Pd       5.49305155      13.69680068      14.06096718
Pd       8.18487747       0.06190826      13.89609727
Pd      11.15248989      13.72146030      13.84505475
Pd      13.63812811       2.84596988      13.98878974
Pd       2.62949619       2.78951807      14.04375454
Pd       5.51764727       2.68133624      13.95367604
Pd       8.24545718       2.75855316      14.12332646
Pd      10.92563182       2.67385865      13.94683851
Pd       0.00925798       5.59428262      14.01532233
Pd       2.72274766       5.57523622      14.15820747
Pd       5.45224644       5.47352859      14.00725686
Pd       8.25304704       5.49899214      13.90550003
Pd      11.01807471       5.38364503      14.00448874
Pd      13.68073358       8.33697614      13.89299093
Pd       2.74169874       8.25818192      13.87372064
Pd       5.45894883       8.25010866      13.98094275
Pd       8.23550413       8.29361141      13.97232764
Pd      10.97976759       8.14662545      14.05535566
Pd       0.05587593      11.04050738      14.08990739
Pd       2.80251343      11.07221045      13.96563427
Pd       5.52044845      10.96522388      13.89394165
Pd       8.24640180      11.06508259      13.97513585
Pd      11.06177735      10.92916451      13.88688723
Pd      12.28291601       6.42871996      16.30028334
Pd       9.59241260       9.75985547      16.02917901
Pd       2.23841596      12.59054104      16.44017357
Pd       1.25888933       7.52934678      15.91654486
Pd      12.34746751       9.51056027      16.16101746
Pd       9.67759703       1.11971544      16.19865251
Pd       4.64348713       0.92454206      16.77959890
Pd       6.37121997       9.94185614      16.30667933
Pd       4.74968139      12.04883350      16.19881665
Pd      12.56511392      12.52565505      16.06410013
Pd       0.83835885       4.89073952      16.63930314
Pd       3.87058063       4.37954353      16.57525198
Pd      11.77835593       2.97313405      16.74982927
Pd       3.63483042       9.51825530      16.11154029
Pd       6.75921549       6.88739479      16.19692833
Pd       7.17138894      13.26838736      16.37607813
Pd       9.01324731       4.20488124      16.51127509
Pd       6.58731701       3.20028585      16.41678553
Pd       1.33974625       1.83030043      16.60738740
Pd       3.60579752       6.98975883      17.05051553
O        9.89910681       2.69139705      17.36983524
O       11.14521072      11.08660071      15.97758619
O        0.41971533      13.72023862      16.03375229
O       12.24776390       1.25222513      17.66454494
O       11.46396315       0.23254783      17.21874837
O        5.20247632       8.19825957      16.70964616
O        4.11906013       2.62286464      15.46834428
O        2.21078859       3.53891492      17.28930169
O        9.67570075      13.28077944      15.11946874
O        2.01306774      10.72428573      15.84343593
O        2.74393050       0.57450094      17.21475466
O        1.81283116       6.38041791      17.51108033
O        8.41023065       5.89917064      15.85042866
O        7.95421529       8.57923466      16.09099378
O        5.75692638       5.04366089      16.05888959
O       13.65506512       3.16473432      16.05493483
O       11.14618140       4.83353169      16.03353939
O       13.29793042       7.98743782      16.88531034
O        6.58351175       1.29946273      16.96071932
O        7.72777318      11.39300676      16.02740062
