115
Lattice="13.75323 0.0 0.0 0.0 13.75323 0.0 0.0 0.0 23.89" Properties=species:S:1:pos:R:3 entry_id=8 rank=7 energy=-573.3472290039062 parent_id=2 pbc="T T F"
Pd       0.00000000       0.00000000      10.00000000
Pd       2.75064538       0.00000000      10.00000000
Pd       5.50129076       0.00000000      10.00000000
Pd       8.25193614       0.00000000      10.00000000
Pd      11.00258152       0.00000000      10.00000000
Pd       0.00000000       2.75064538      10.00000000
Pd       2.75064538       2.75064538      10.00000000
Pd       5.50129076       2.75064538      10.00000000
Pd       8.25193614       2.75064538      10.00000000
Pd      11.00258152       2.75064538      10.00000000
Pd       0.00000000       5.50129076      10.00000000
Pd       2.75064538       5.50129076      10.00000000
Pd       5.50129076       5.50129076      10.00000000
Pd       8.25193614       5.50129076      10.00000000
Pd      11.00258152       5.50129076      10.00000000
Pd       0.00000000       8.25193614      10.00000000
Pd       2.75064538       8.25193614      10.00000000
Pd       5.50129076       8.25193614      10.00000000
Pd       8.25193614       8.25193614      10.00000000
Pd      11.00258152       8.25193614      10.00000000
Pd       0.00000000      11.00258152      10.00000000
Pd       2.75064538      11.00258152      10.00000000
Pd       5.50129076      11.00258152      10.00000000
Pd       8.25193614      11.00258152      10.00000000
Pd      11.00258152      11.00258152      10.00000000
Pd       1.37598501       1.43822602      11.98059554
Pd       4.11669489       1.39086157      11.96601075
Pd       6.85132996       1.38186761      11.99204022
Pd       9.57512057       1.39592898      11.89594876
Pd      12.38684272       1.37174114      11.92044161
Pd       1.37503593       4.16555889      12.02428015
Pd       4.09503013       4.14369212      11.99537715
Pd       6.85554020       4.10335244      11.99550995
Pd       9.56728621       4.13975942      11.94281254
Pd      12.36578195       4.13265160      11.93417299
Pd       1.37110082       6.89256210      11.94010419
Pd       4.13935064       6.87026939      11.96482277
Pd       6.87097415       6.85831372      11.95140951
Pd       9.64205429       6.82915781      11.94515418
Pd      12.39111484       6.85622887      11.94896407
Pd       1.37241980       9.68016431      11.95851723
Pd       4.11777592       9.66324146      11.95099537
Pd       6.89476706       9.64088005      11.95142944
Pd       9.64982872       9.59779534      11.89439304
Pd      12.42487279       9.60955999      11.94161946
Pd       1.39010658      12.43110470      11.97244525
Pd       4.12542323      12.41245528      11.95422739
Pd       6.86816975      12.39901143      11.97280504
Pd       9.63028672      12.36702810      11.91406436
Pd      12.44701045      12.34380839      11.97251334
Pd       0.12930037       0.11255967      13.99126199
Pd       2.82524991       0.08308835      14.00163992
Pd       5.48888167      13.71049478      14.05776909
Pd       8.18134279       0.05949953      13.90566002
Pd      11.14059894      13.72042592      13.84949133
Pd      13.64953194       2.86416826      13.98951027
Pd       2.64311741       2.79815631      14.04843782
Pd       5.53037577       2.68227529      13.96354199
Pd       8.25712606       2.75611035      14.11772228
Pd      10.93563250       2.66944810      13.95066730
Pd       0.01984171       5.61854145      14.02187642
Pd       2.73933343       5.57533310      14.14956922
Pd       5.47645483       5.45364884      14.00236503
Pd       8.28350384       5.50003248      13.92692914
Pd      11.04124611       5.37878876      14.00957267
Pd      13.64746843       8.34287491      13.88936220
Pd       2.68754385       8.25764202      13.89045827
Pd       5.40152717       8.22872229      14.00365856
Pd       8.22243907       8.29424024      13.96207633
Pd      10.96497698       8.14230603      14.06517719
Pd       0.05785139      11.03566332      14.14407198
Pd       2.81283445      11.10460460      13.92268082
Pd       5.51286586      10.98316044      13.86336577
Pd       8.24147424      11.06451342      13.98321284
Pd      11.06596554      10.92072487      13.89118695
Pd      12.26694274       6.39776819      16.34224825
Pd       9.57314435       9.76821890      16.03470677
Pd       2.19635172      12.65478778      16.43883788
Pd       1.15772238       7.66676755      15.98477940
Pd      12.30098483       9.49118079      16.21453215
Pd       9.69543732       1.07761043      16.21475365
Pd       4.65472294       0.93189144      16.82275283
Pd       6.32150159       9.92586409      16.21922800
Pd       4.70032469      12.06180614      16.15425052
Pd      12.55272272      12.53429784      16.06605174
Pd       0.87715397       4.93107123      16.59973872
Pd       3.91791466       4.38351886      16.55734680
Pd      11.81188226       2.94058255      16.76520324
Pd       3.43301623       9.64005337      16.08933339
Pd       6.86121100       6.83414331      16.15946892
Pd       7.14727395      13.25630117      16.38769250
Pd       9.06525596       4.15132417      16.53453276
Pd       6.62515196       3.17627280      16.42749469
Pd       1.35860082       1.86637348      16.61512136
Pd       3.60374185       7.02660571      16.77339079
O        9.93868861       2.63514922      17.39648127
O       11.13460401      11.08581403      15.97893181
O        0.39574493       0.00147781      16.03293076
O       12.27234818       1.22469438      17.69265327
O       11.47717907       0.20800891      17.25175613
O        5.22493175       8.10668698      16.23245418
O        4.13430535       2.61129609      15.47348952
O        2.24098315       3.58001420      17.27494252
O        9.66646639      13.24864836      15.12280436
O        1.78407894      10.85656375      15.74497402
O        2.74982047       0.60348885      17.24779499
O        1.86703582       6.43331676      17.43640824
O        8.52120656       5.86579773      15.88827846
O        7.94839102       8.57957463      16.08482471
O        5.82769807       5.02115075      16.05443455
O       13.67984452       3.18887183      16.05533165
O       11.17396675       4.78274692      16.03403740
O       13.20459391       7.97068354      17.00406724
O        6.59784399       1.28739854      16.99560478
O        7.68199771      11.38014104      16.04926574
