115
Lattice="13.75323 0.0 0.0 0.0 13.75323 0.0 0.0 0.0 23.89" Properties=species:S:1:pos:R:3 entry_id=10 rank=8 energy=-573.3453369140625 parent_id=9 pbc="T T F"
Pd       0.00000000       0.00000000      10.00000000
Pd       2.75064538       0.00000000      10.00000000
Pd       5.50129076       0.00000000      10.00000000
Pd       8.25193614       0.00000000      10.00000000
Pd      11.00258152       0.00000000      10.00000000
Pd       0.00000000       2.75064538      10.00000000
Pd       2.75064538       2.75064538      10.00000000
Pd       5.50129076       2.75064538      10.00000000
Pd       8.25193614       2.75064538      10.00000000
Pd      11.00258152       2.75064538      10.00000000
Pd       0.00000000       5.50129076      10.00000000
Pd       2.75064538       5.50129076      10.00000000
Pd       5.50129076       5.50129076      10.00000000
Pd       8.25193614       5.50129076      10.00000000
Pd      11.00258152       5.50129076      10.00000000
Pd       0.00000000       8.25193614      10.00000000
Pd       2.75064538       8.25193614      10.00000000
Pd       5.50129076       8.25193614      10.00000000
Pd       8.25193614       8.25193614      10.00000000
Pd      11.00258152       8.25193614      10.00000000
Pd       0.00000000      11.00258152      10.00000000
Pd       2.75064538      11.00258152      10.00000000
Pd       5.50129076      11.00258152      10.00000000
Pd       8.25193614      11.00258152      10.00000000
Pd      11.00258152      11.00258152      10.00000000
Pd       1.37231390       1.43925739      11.98286291
Pd       4.11116373       1.39139000      11.96475709
Pd       6.84993891       1.38652953      11.98841331
Pd       9.57512057       1.39592898      11.89594876
Pd      12.38684272       1.37174114      11.92044161
Pd       1.36761709       4.16815230      12.02125454
Pd       4.08740466       4.14310337      11.99268553
Pd       6.85161778       4.10534097      11.99615500
Pd       9.56728621       4.13975942      11.94281254
Pd      12.36578195       4.13265160      11.93417299
Pd       1.37110082       6.89256210      11.94010419
Pd       4.13935064       6.87026939      11.96482277
Pd       6.87097415       6.85831372      11.95140951
Pd       9.64205429       6.82915781      11.94515418
Pd      12.39111484       6.85622887      11.94896407
Pd       1.37200517       9.67742190      11.95986657
Pd       4.11777592       9.66324146      11.95099537
Pd       6.89476706       9.64088005      11.95142944
Pd       9.64982872       9.59779534      11.89439304
Pd      12.42487279       9.60955999      11.94161946
Pd       1.38946354      12.43223803      11.97494093
Pd       4.12047340      12.41367925      11.95497137
Pd       6.86816975      12.39901143      11.97280504
Pd       9.63028672      12.36702810      11.91406436
Pd      12.44908746      12.34313714      11.97009865
Pd       0.13357264       0.10629472      13.99473990
Pd       2.82817849       0.08206087      14.01224508
Pd       5.48958366      13.72049049      14.04566736
Pd       8.17848225       0.06419178      13.89788842
Pd      11.14736774      13.72263746      13.84582711
Pd      13.63543956       2.86250009      13.98930012
Pd       2.62803773       2.79929202      14.04415191
Pd       5.52235937       2.68590603      13.96127018
Pd       8.24598844       2.76161737      14.12426920
Pd      10.92426835       2.67210796      13.94854120
Pd       0.01299396       5.61919589      14.02285474
Pd       2.72784306       5.57235010      14.14783664
Pd       5.46513264       5.46222175      13.99512336
Pd       8.27525841       5.50651730      13.92627658
Pd      11.03141625       5.38211448      14.00336576
Pd      13.63585966       8.34338241      13.89201030
Pd       2.67541785       8.25504697      13.90313722
Pd       5.39882198       8.24265087      13.99624055
Pd       8.21358686       8.29956883      13.96527549
Pd      10.95440949       8.14254175      14.06742866
Pd       0.05115509      11.03352738      14.14454436
Pd       2.79500662      11.10332083      13.92503477
Pd       5.50252907      10.99184726      13.86028086
Pd       8.23508659      11.07105100      13.98624860
Pd      11.06320241      10.92182565      13.89149283
Pd      12.23031338       6.40235973      16.34204031
Pd       9.56568183       9.77124282      16.02970789
Pd       2.18144981      12.66223365      16.45214225
Pd       1.12436093       7.68547726      16.00208289
Pd      12.29202009       9.49509650      16.21473178
Pd       9.66176216       1.08275721      16.19895840
Pd       4.61220187       0.95374106      16.83703512
Pd       6.32755593       9.98038756      16.22480966
Pd       4.68658015      12.09458033      16.14011470
Pd      12.53831778      12.53843169      16.06998363
Pd       0.83943252       4.93758024      16.59879437
Pd       3.87975083       4.39185459      16.55174422
Pd      11.76469234       2.94935786      16.75711562
Pd       3.46210390       9.64539024      16.08649076
Pd       6.81511930       6.87267543      16.15746336
Pd       7.12765751      13.30346743      16.38538625
Pd       9.01721297       4.17433619      16.53075632
Pd       6.57960784       3.21295407      16.43247141
Pd       1.31764850       1.87363770      16.61685260
Pd       3.57880816       7.03472926      16.76385923
O        9.88537586       2.64525204      17.37793369
O       11.12596070      11.09014548      15.98037087
O        0.37649201       0.00581379      16.03984777
O       12.22570732       1.23553118      17.68845030
O       11.44125964       0.21531750      17.24331980
O        5.17356436       8.18757502      16.23204267
O        4.11579225       2.62130702      15.46689270
O        2.20330599       3.58489656      17.26888772
O        9.66718583      13.25125432      15.10650035
O        1.81824620      10.84704259      15.77644717
O        2.70961168       0.61932784      17.25902504
O        1.84286736       6.43428052      17.42959254
O        8.47220476       5.89070413      15.88765643
O        7.92516823       8.60407519      16.08403277
O        5.78440227       5.05539800      16.05200639
O       13.63719805       3.19674521      16.05453373
O       11.13072922       4.79101399      16.02611506
O       13.16796775       7.96644820      17.02228707
O        6.55177550       1.32441631      16.99841078
O        7.68138894      11.43273300      16.05085194
