115
Lattice="13.75323 0.0 0.0 0.0 13.75323 0.0 0.0 0.0 23.89" Properties=species:S:1:pos:R:3 entry_id=0 rank=15 energy=-568.39501953125 parent_id=-1 pbc="T T F"
Pd       0.00000000       0.00000000      10.00000000
Pd       2.75064538       0.00000000      10.00000000
Pd       5.50129076       0.00000000      10.00000000
Pd       8.25193614       0.00000000      10.00000000
Pd      11.00258152       0.00000000      10.00000000
Pd       0.00000000       2.75064538      10.00000000
Pd       2.75064538       2.75064538      10.00000000
Pd       5.50129076       2.75064538      10.00000000
Pd       8.25193614       2.75064538      10.00000000
Pd      11.00258152       2.75064538      10.00000000
Pd       0.00000000       5.50129076      10.00000000
Pd       2.75064538       5.50129076      10.00000000
Pd       5.50129076       5.50129076      10.00000000
Pd       8.25193614       5.50129076      10.00000000
Pd      11.00258152       5.50129076      10.00000000
Pd       0.00000000       8.25193614      10.00000000
Pd       2.75064538       8.25193614      10.00000000
Pd       5.50129076       8.25193614      10.00000000
Pd       8.25193614       8.25193614      10.00000000
Pd      11.00258152       8.25193614      10.00000000
Pd       0.00000000      11.00258152      10.00000000
Pd       2.75064538      11.00258152      10.00000000
Pd       5.50129076      11.00258152      10.00000000
Pd       8.25193614      11.00258152      10.00000000
Pd      11.00258152      11.00258152      10.00000000
Pd       1.34624258       1.38084366      12.08140072
Pd       4.09709901       1.39052684      12.02479144
Pd       6.82981481       1.36955743      12.02877818
Pd       9.57512057       1.39592898      11.89594876
Pd      12.38684272       1.37174114      11.92044161
Pd       1.36477157       4.11653255      11.98603501
Pd       4.10063067       4.12336490      12.03937937
Pd       6.80964119       4.10127247      12.01948203
Pd       9.56728621       4.13975942      11.94281254
Pd      12.36578195       4.13265160      11.93417299
Pd       1.37110082       6.89256210      11.94010419
Pd       4.13935064       6.87026939      11.96482277
Pd       6.87097415       6.85831372      11.95140951
Pd       9.64205429       6.82915781      11.94515418
Pd      12.39111484       6.85622887      11.94896407
Pd       1.35621023       9.70034501      11.99805010
Pd       4.11777592       9.66324146      11.95099537
Pd       6.89476706       9.64088005      11.95142944
Pd       9.64982872       9.59779534      11.89439304
Pd      12.42487279       9.60955999      11.94161946
Pd       1.38044231      12.43193115      12.05374478
Pd       4.10021976      12.39284132      12.00406766
Pd       6.86816975      12.39901143      11.97280504
Pd       9.63028672      12.36702810      11.91406436
Pd      12.44377845      12.34106276      11.97882523
Pd      13.68383115      13.72509804      14.13498367
Pd       2.74104993       0.13691501      14.18797492
Pd       5.57274706      13.58408801      14.03501637
Pd       8.32209721       0.10875661      14.02899528
Pd      11.00945025       0.06538819      13.76260102
Pd      13.56159569       2.74996594      13.99054094
Pd       2.60935884       2.89249769      14.11902207
Pd       5.38702985       2.66347909      14.17477754
Pd       8.19634716       2.74741086      13.98469333
Pd      10.87231798       2.71371239      13.87798527
Pd       0.02065676       5.52366064      13.94648369
Pd       2.72280300       5.58687732      14.00785466
Pd       5.45644948       5.48202955      14.06968288
Pd       8.27767851       5.48392136      14.03244936
Pd      11.00184542       5.39660798      13.97229378
Pd       0.04972269       8.32458869      13.97807205
Pd       2.75360692       8.29352509      13.88782649
Pd       5.49570275       8.26291471      13.94878972
Pd       8.40018887       8.22068630      13.82454805
Pd      11.08215063       8.19516326      13.93714337
Pd      13.58925415      10.96821642      14.50064411
Pd       2.74689447      11.08186299      14.01333405
Pd       5.55692727      10.90583487      13.95549086
Pd       8.34037765      11.01505519      13.92443783
Pd      11.03614077      10.88291609      13.82899028
Pd      12.43757624       6.59288850      16.10452707
Pd       8.74023197       9.62198496      16.23412600
Pd       2.03065722      12.72899860      16.64119651
Pd       1.41925306       7.01589168      16.25549713
Pd      11.87895973       9.39105307      16.30172457
Pd       8.32080613       1.37677243      16.95474209
Pd       4.98994243       0.37831339      17.18452518
Pd       5.65051938       9.65138178      17.05434054
Pd       4.39387008      11.78170858      16.13854832
Pd      10.86720296      12.42525680      15.91206991
Pd       0.84947657       4.28633392      16.30384321
Pd       3.88141308       4.40498400      16.31829867
Pd      11.15785355       3.15624097      16.54908476
Pd       2.99012274       9.51110414      16.27594469
Pd       7.25968847       7.14727718      16.87910229
Pd       6.97188414      11.97818367      16.16845480
Pd       9.73204698       6.98604678      15.97460966
Pd       7.44863562       3.72296828      16.42952969
Pd       1.07462092       1.49124623      16.04518455
Pd       4.09055267       7.08730513      15.90611783
O        9.23782821       3.11398301      17.10116748
O       10.39577296      10.53342389      16.84739250
O       12.86565649      12.54158399      15.65830093
O       11.40040993       1.29086335      17.22751809
O       10.36258557       0.44718960      17.13446079
O        5.25439791       7.65421201      17.37629234
O        4.40733090       1.01612756      15.22011281
O        2.39088117       1.64075715      17.53600762
O        8.88605979      12.46474099      15.43790282
O        1.53672830      10.98904519      15.78939612
O        3.00993533       0.38460539      17.70399128
O        2.31057389       5.38260308      17.01127340
O        6.98076215       5.58698588      15.66942214
O        7.53891940       8.89924051      17.78025401
O        5.52328352       3.35574985      16.08828869
O       13.14557322       2.98279014      16.01059123
O       11.03825984       5.17654628      16.05770732
O       13.54550826       8.25307402      16.06253110
O        6.93525125       0.02462790      17.15687402
O        7.07533817       8.65269551      15.26882331
