115
Lattice="13.75323 0.0 0.0 0.0 13.75323 0.0 0.0 0.0 23.89" Properties=species:S:1:pos:R:3 entry_id=11 rank=1 energy=-573.3892822265625 parent_id=8 pbc="T T F"
Pd       0.00000000       0.00000000      10.00000000
Pd       2.75064538       0.00000000      10.00000000
Pd       5.50129076       0.00000000      10.00000000
Pd       8.25193614       0.00000000      10.00000000
Pd      11.00258152       0.00000000      10.00000000
Pd       0.00000000       2.75064538      10.00000000
Pd       2.75064538       2.75064538      10.00000000
Pd       5.50129076       2.75064538      10.00000000
Pd       8.25193614       2.75064538      10.00000000
Pd      11.00258152       2.75064538      10.00000000
Pd       0.00000000       5.50129076      10.00000000
Pd       2.75064538       5.50129076      10.00000000
Pd       5.50129076       5.50129076      10.00000000
Pd       8.25193614       5.50129076      10.00000000
Pd      11.00258152       5.50129076      10.00000000
Pd       0.00000000       8.25193614      10.00000000
Pd       2.75064538       8.25193614      10.00000000
Pd       5.50129076       8.25193614      10.00000000
Pd       8.25193614       8.25193614      10.00000000
Pd      11.00258152       8.25193614      10.00000000
Pd       0.00000000      11.00258152      10.00000000
Pd       2.75064538      11.00258152      10.00000000
Pd       5.50129076      11.00258152      10.00000000
Pd       8.25193614      11.00258152      10.00000000
Pd      11.00258152      11.00258152      10.00000000
Pd       1.38236610       1.42197641      11.97532565
Pd       4.12354270       1.39294448      11.96557060
Pd       6.85861688       1.38949041      11.98885678
Pd       9.57512057       1.39592898      11.89594876
Pd      12.38684272       1.37174114      11.92044161
Pd       1.38380427       4.14694894      11.99333390
Pd       4.10616514       4.14067706      11.98776450
Pd       6.85799893       4.10669533      11.99380290
Pd       9.56728621       4.13975942      11.94281254
Pd      12.36578195       4.13265160      11.93417299
Pd       1.37110082       6.89256210      11.94010419
Pd       4.13935064       6.87026939      11.96482277
Pd       6.87097415       6.85831372      11.95140951
Pd       9.64205429       6.82915781      11.94515418
Pd      12.39111484       6.85622887      11.94896407
Pd       1.36769430       9.65002183      11.97318952
Pd       4.11777592       9.66324146      11.95099537
Pd       6.89476706       9.64088005      11.95142944
Pd       9.64982872       9.59779534      11.89439304
Pd      12.42487279       9.60955999      11.94161946
Pd       1.38439453      12.41290426      11.96429086
Pd       4.11876708      12.41404819      11.95200804
Pd       6.86816975      12.39901143      11.97280504
Pd       9.63028672      12.36702810      11.91406436
Pd      12.44296442      12.34722841      11.97214289
Pd       0.14128687       0.08983324      13.97693344
Pd       2.84232691       0.07316157      14.00213501
Pd       5.50985506      13.74072250      14.03082181
Pd       8.19339813       0.06039180      13.90544100
Pd      11.14074049      13.74081858      13.85209800
Pd      13.65398735       2.83572151      13.97015210
Pd       2.65132390       2.78366351      14.03295472
Pd       5.54697599       2.70561275      13.96668938
Pd       8.27163089       2.75430286      14.13648759
Pd      10.94287939       2.69067700      13.95464003
Pd      13.74851813       5.57642701      13.93346806
Pd       2.72711695       5.54985753      14.07358827
Pd       5.47351931       5.47189065      14.00724870
Pd       8.27088380       5.49009631      13.91301561
Pd      11.01929283       5.40652596      13.99357457
Pd      13.67325318       8.26140742      13.97968648
Pd       2.67519536       8.26000551      13.95572731
Pd       5.41028324       8.25129113      14.00312408
Pd       8.23313376       8.29663437      13.95619794
Pd      10.97440031       8.18299963      14.04938547
Pd       0.00885724      11.01278869      14.12882562
Pd       2.75418293      11.10401425      13.91608710
Pd       5.46717535      11.00335574      13.87382551
Pd       8.20408805      11.07267062      13.97284832
Pd      11.02567729      10.95467074      13.88275238
Pd      12.28010049       6.50920719      16.26215568
Pd       9.56149506       9.84099014      16.03727073
Pd       2.15050305      12.63899709      16.40819284
Pd       1.22819564       8.70658356      16.38710164
Pd      12.24507507       9.58366719      16.22141632
Pd       9.72968219       1.18283358      16.26509031
Pd       4.65589144       1.00900640      16.78915710
Pd       6.34193749       9.94420548      16.20353922
Pd       4.73269985      12.19332619      16.14397085
Pd      12.55012263      12.59662059      16.06729310
Pd       0.85310230       5.12069657      16.41068636
Pd       3.92599950       4.49168239      16.50321120
Pd      11.85780738       3.03412393      16.77165755
Pd       3.61630634       9.82495006      16.05099063
Pd       6.93378953       6.83987211      16.15749764
Pd       7.18170798      13.29788622      16.39754673
Pd       9.11227798       4.19363227      16.54998246
Pd       6.65808037       3.20886191      16.43457455
Pd       1.37241500       1.96518063      16.55965626
Pd       3.53348608       7.15854778      16.46430417
O       10.00102969       2.71909297      17.46132910
O       11.09449575      11.18703710      15.97295578
O        0.40305798       0.04324216      16.01641996
O       12.33665560       1.31385743      17.68273304
O       11.52240321       0.30229209      17.26477408
O        5.32587884       8.05278138      16.22914360
O        4.14368010       2.67452471      15.47021634
O        2.21277168       3.75320632      17.16718097
O        9.67496648      13.36699410      15.16460921
O        1.58675415      10.75659220      15.78484816
O        2.74100852       0.63543088      17.13373918
O        1.70059664       6.81233403      16.98712495
O        8.58458848       5.88801537      15.85737937
O        7.98850087       8.60451543      16.08065948
O        5.87237701       5.05434790      16.06688260
O       13.70169899       3.30183915      16.01806292
O       11.21098126       4.86233158      16.01709793
O       13.14427506       8.07641488      17.02164641
O        6.60675406       1.32179859      17.00499451
O        7.70710224      11.41555798      16.05071576
