115
Lattice="13.75323 0.0 0.0 0.0 13.75323 0.0 0.0 0.0 23.89" Properties=species:S:1:pos:R:3 entry_id=22 rank=0 energy=-573.0081176757812 parent_id=18 pbc="T T F"
Pd       0.00000000       0.00000000      10.00000000
Pd       2.75064538       0.00000000      10.00000000
Pd       5.50129076       0.00000000      10.00000000
Pd       8.25193614       0.00000000      10.00000000
Pd      11.00258152       0.00000000      10.00000000
Pd       0.00000000       2.75064538      10.00000000
Pd       2.75064538       2.75064538      10.00000000
Pd       5.50129076       2.75064538      10.00000000
Pd       8.25193614       2.75064538      10.00000000
Pd      11.00258152       2.75064538      10.00000000
Pd       0.00000000       5.50129076      10.00000000
Pd       2.75064538       5.50129076      10.00000000
Pd       5.50129076       5.50129076      10.00000000
Pd       8.25193614       5.50129076      10.00000000
Pd      11.00258152       5.50129076      10.00000000
Pd       0.00000000       8.25193614      10.00000000
Pd       2.75064538       8.25193614      10.00000000
Pd       5.50129076       8.25193614      10.00000000
Pd       8.25193614       8.25193614      10.00000000
Pd      11.00258152       8.25193614      10.00000000
Pd       0.00000000      11.00258152      10.00000000
Pd       2.75064538      11.00258152      10.00000000
Pd       5.50129076      11.00258152      10.00000000
Pd       8.25193614      11.00258152      10.00000000
Pd      11.00258152      11.00258152      10.00000000
Pd       1.35208575       1.38641073      12.02810521
Pd       4.07464533       1.36195451      11.98279202
Pd       6.84210732       1.35695565      11.98709344
Pd       9.57512057       1.39592898      11.89594876
Pd      12.38684272       1.37174114      11.92044161
Pd       1.36498616       4.12046921      11.99217217
Pd       4.08773205       4.11739006      11.96418831
Pd       6.83181652       4.12606551      11.96739523
Pd       9.56728621       4.13975942      11.94281254
Pd      12.36578195       4.13265160      11.93417299
Pd       1.37110082       6.89256210      11.94010419
Pd       4.13935064       6.87026939      11.96482277
Pd       6.87097415       6.85831372      11.95140951
Pd       9.64205429       6.82915781      11.94515418
Pd      12.39111484       6.85622887      11.94896407
Pd       1.38144182       9.64802914      11.96032824
Pd       4.11777592       9.66324146      11.95099537
Pd       6.89476706       9.64088005      11.95142944
Pd       9.64982872       9.59779534      11.89439304
Pd      12.42487279       9.60955999      11.94161946
Pd       1.36944153      12.41062452      11.98375288
Pd       4.12063609      12.39562398      12.00048675
Pd       6.86816975      12.39901143      11.97280504
Pd       9.63028672      12.36702810      11.91406436
Pd      12.39752818      12.36354852      11.98598010
Pd       0.06857867       0.03832935      14.06651919
Pd       2.78279728       0.00049595      14.07215441
Pd       5.49594302       0.07041611      14.08431546
Pd       8.27980564      13.74906011      13.95951341
Pd      11.02880084       0.05981411      13.90666387
Pd      13.64722687       2.78083977      14.00980746
Pd       2.65648051       2.70707493      14.09998676
Pd       5.38154396       2.75824687      13.89309177
Pd       8.21234485       2.72580037      13.95494713
Pd      10.92532746       2.74170242      13.94642267
Pd       0.02912760       5.54729051      14.00800001
Pd       2.77187935       5.61834907      13.87576547
Pd       5.45913847       5.43007873      14.09319555
Pd       8.24858328       5.49302466      13.95743341
Pd      11.02029603       5.43767122      13.91346916
Pd      13.74324995       8.25195526      13.92998384
Pd       2.82420542       8.31429840      13.95076727
Pd       5.53693723       8.21594484      14.02314992
Pd       8.28773821       8.24694756      13.95389404
Pd      11.02130415       8.22894006      13.98050808
Pd      13.66445600      10.95773551      14.03870387
Pd       2.73754900      11.02319554      13.95159821
Pd       5.50431441      11.00286489      13.90443973
Pd       8.27777695      10.97438322      13.99608067
Pd      10.93949616      10.96455712      13.88548064
Pd      12.46905298       6.75060436      16.25076622
Pd       9.15430791       9.63073344      16.30083256
Pd       1.70565227      12.48880841      16.63036212
Pd       1.42642276       7.27085267      15.99615063
Pd      12.30192496       9.47898017      16.20627968
Pd       9.42661315       1.05490524      16.54475594
Pd       3.97844244       1.07121893      16.56400024
Pd       5.68612197       9.84589372      16.46311658
Pd       4.15117384      12.04963734      15.95275971
Pd      12.13715868      12.30634757      16.06975755
Pd       1.87989769       4.60480517      16.09178058
Pd       6.53551629       2.06522873      16.01698039
Pd      11.73466536       3.49243315      16.68594444
Pd       2.77491653       9.68489451      16.42222392
Pd       7.04872378       7.14000193      16.26582550
Pd       6.93467010      13.06530889      16.54576048
Pd       9.67546007       6.86721962      15.96439672
Pd       8.40429581       4.07339083      16.34150077
Pd       0.71347689       2.18779128      17.06111778
Pd       4.12739157       7.06735354      16.37546659
O        9.85225984       2.95280011      17.12852897
O       10.80368665      10.76976214      15.96707012
O       13.72988942      13.42377294      16.07851946
O       12.64058790       2.10929212      17.66254412
O       11.17992772       0.43837063      15.86971894
O        4.27551260       8.77568297      17.31955683
O        2.57658439       2.46828293      16.17480620
O        1.47399020       0.94711214      18.40519625
O        8.76336440      13.05506586      15.85006306
O        1.34443443      10.82852370      15.60346394
O        2.43263074       0.14110743      17.85276203
O        3.77850308       5.24588190      15.76483304
O        6.92461730       5.26185943      15.67201561
O        7.45865733       8.89202934      17.00339540
O        7.55576286       1.06901876      17.38261193
O       13.73018342       3.71976669      15.91226527
O       11.16294201       5.29530046      15.97070331
O       13.62641604       8.18891527      16.89786613
O        5.06869036      13.28729225      17.23648428
O        6.83031801      11.21084551      15.58967557
115
Lattice="13.75323 0.0 0.0 0.0 13.75323 0.0 0.0 0.0 23.89" Properties=species:S:1:pos:R:3 entry_id=24 rank=1 energy=-573.005615234375 parent_id=23 pbc="T T F"
Pd       0.00000000       0.00000000      10.00000000
Pd       2.75064538       0.00000000      10.00000000
Pd       5.50129076       0.00000000      10.00000000
Pd       8.25193614       0.00000000      10.00000000
Pd      11.00258152       0.00000000      10.00000000
Pd       0.00000000       2.75064538      10.00000000
Pd       2.75064538       2.75064538      10.00000000
Pd       5.50129076       2.75064538      10.00000000
Pd       8.25193614       2.75064538      10.00000000
Pd      11.00258152       2.75064538      10.00000000
Pd       0.00000000       5.50129076      10.00000000
Pd       2.75064538       5.50129076      10.00000000
Pd       5.50129076       5.50129076      10.00000000
Pd       8.25193614       5.50129076      10.00000000
Pd      11.00258152       5.50129076      10.00000000
Pd       0.00000000       8.25193614      10.00000000
Pd       2.75064538       8.25193614      10.00000000
Pd       5.50129076       8.25193614      10.00000000
Pd       8.25193614       8.25193614      10.00000000
Pd      11.00258152       8.25193614      10.00000000
Pd       0.00000000      11.00258152      10.00000000
Pd       2.75064538      11.00258152      10.00000000
Pd       5.50129076      11.00258152      10.00000000
Pd       8.25193614      11.00258152      10.00000000
Pd      11.00258152      11.00258152      10.00000000
Pd       1.34963230       1.38789694      12.02834296
Pd       4.07153040       1.36215231      11.98270996
Pd       6.84196100       1.35766107      11.98921460
Pd       9.57512057       1.39592898      11.89594876
Pd      12.38684272       1.37174114      11.92044161
Pd       1.36097604       4.12154183      11.99603226
Pd       4.08338164       4.11904638      11.96568176
Pd       6.82953321       4.12405788      11.96813525
Pd       9.56728621       4.13975942      11.94281254
Pd      12.36578195       4.13265160      11.93417299
Pd       1.37110082       6.89256210      11.94010419
Pd       4.13935064       6.87026939      11.96482277
Pd       6.87097415       6.85831372      11.95140951
Pd       9.64205429       6.82915781      11.94515418
Pd      12.39111484       6.85622887      11.94896407
Pd       1.38181673       9.64805279      11.96261899
Pd       4.11777592       9.66324146      11.95099537
Pd       6.89476706       9.64088005      11.95142944
Pd       9.64982872       9.59779534      11.89439304
Pd      12.42487279       9.60955999      11.94161946
Pd       1.36742728      12.40953093      11.98538339
Pd       4.11834991      12.39639161      12.00094689
Pd       6.86816975      12.39901143      11.97280504
Pd       9.63028672      12.36702810      11.91406436
Pd      12.39294946      12.36348919      11.98844479
Pd       0.06448016       0.04281376      14.06520789
Pd       2.78033421      13.75290394      14.07405774
Pd       5.49361969       0.07540352      14.08629942
Pd       8.28070955      13.74860421      13.96153237
Pd      11.02741092       0.05899392      13.91393307
Pd      13.63601453       2.78570309      14.01665853
Pd       2.64243561       2.70469797      14.10995929
Pd       5.36986018       2.76026626      13.89454728
Pd       8.20381052       2.72494559      13.96401418
Pd      10.91860154       2.73971818      13.94994849
Pd       0.02284114       5.55054817      14.00736586
Pd       2.76951924       5.61257070      13.88479456
Pd       5.45975827       5.43548337      14.08752996
Pd       8.24775490       5.49361139      13.95886747
Pd      11.01570630       5.43286954      13.91671948
Pd      13.74300601       8.25291338      13.93077599
Pd       2.82097579       8.31046727      13.95415153
Pd       5.53715995       8.21889235      14.01875927
Pd       8.29215811       8.24883991      13.95461074
Pd      11.02430652       8.22219253      13.98219892
Pd      13.65820286      10.95819120      14.04412837
Pd       2.73088383      11.02250595      13.95403356
Pd       5.49907994      11.00649798      13.90533813
Pd       8.27349891      10.97750499      13.99454878
Pd      10.93722050      10.96039795      13.89065417
Pd      12.45454586       6.73198240      16.25980431
Pd       9.15305246       9.63703987      16.30174767
Pd       1.69555043      12.49247234      16.63696786
Pd       1.41176660       7.27597797      16.00138123
Pd      12.29184898       9.46642744      16.21703520
Pd       9.41643501       1.06263162      16.55464365
Pd       3.96151501       1.07708536      16.56557974
Pd       5.68437251       9.85123372      16.45671912
Pd       4.14156579      12.05073863      15.95451347
Pd      12.13535156      12.31202314      16.07034558
Pd       1.83515842       4.59994549      16.09284550
Pd       6.51690704       2.08156011      16.02510934
Pd      11.71465464       3.48597228      16.71494055
Pd       2.76575171       9.68739262      16.42049632
Pd       7.04213529       7.14580229      16.26244983
Pd       6.92952161      13.07411840      16.54565922
Pd       9.66980058       6.86866508      15.96901786
Pd       8.38872792       4.08155186      16.35175571
Pd       0.69296093       2.18385946      17.09713601
Pd       4.10924723       7.06396625      16.36875347
O        9.82878551       2.95996967      17.15170678
O       10.80820805      10.77014080      15.97140628
O       13.72373491      13.43628487      16.07793411
O       12.62319180       2.11952365      17.71505747
O       11.17133323       0.45428792      15.87534628
O        4.27307267       8.77733677      17.30406638
O        2.54893151       2.46377267      16.18472845
O        1.47119348       0.93980552      18.42695883
O        8.76066720      13.06072630      15.85689502
O        1.33144614      10.83223405      15.61289716
O        2.42759421       0.13960129      17.86139211
O        3.73042997       5.24086890      15.78010473
O        6.91401213       5.26847209      15.67134054
O        7.45631516       8.89778827      17.00086781
O        7.54371147       1.08084523      17.38071836
O       13.70286466       3.69333028      15.93286003
O       11.14424015       5.28256540      15.97444579
O       13.60725712       8.17032385      16.91159338
O        5.06191407      13.29565371      17.22818656
O        6.82766074      11.22033796      15.58845284
115
Lattice="13.75323 0.0 0.0 0.0 13.75323 0.0 0.0 0.0 23.89" Properties=species:S:1:pos:R:3 entry_id=23 rank=2 energy=-573.00439453125 parent_id=22 pbc="T T F"
Pd       0.00000000       0.00000000      10.00000000
Pd       2.75064538       0.00000000      10.00000000
Pd       5.50129076       0.00000000      10.00000000
Pd       8.25193614       0.00000000      10.00000000
Pd      11.00258152       0.00000000      10.00000000
Pd       0.00000000       2.75064538      10.00000000
Pd       2.75064538       2.75064538      10.00000000
Pd       5.50129076       2.75064538      10.00000000
Pd       8.25193614       2.75064538      10.00000000
Pd      11.00258152       2.75064538      10.00000000
Pd       0.00000000       5.50129076      10.00000000
Pd       2.75064538       5.50129076      10.00000000
Pd       5.50129076       5.50129076      10.00000000
Pd       8.25193614       5.50129076      10.00000000
Pd      11.00258152       5.50129076      10.00000000
Pd       0.00000000       8.25193614      10.00000000
Pd       2.75064538       8.25193614      10.00000000
Pd       5.50129076       8.25193614      10.00000000
Pd       8.25193614       8.25193614      10.00000000
Pd      11.00258152       8.25193614      10.00000000
Pd       0.00000000      11.00258152      10.00000000
Pd       2.75064538      11.00258152      10.00000000
Pd       5.50129076      11.00258152      10.00000000
Pd       8.25193614      11.00258152      10.00000000
Pd      11.00258152      11.00258152      10.00000000
Pd       1.35138704       1.39040015      12.02948064
Pd       4.07165384       1.36614927      11.98412213
Pd       6.83943215       1.35680820      11.99080060
Pd       9.57512057       1.39592898      11.89594876
Pd      12.38684272       1.37174114      11.92044161
Pd       1.36497648       4.12500433      11.99278430
Pd       4.08578557       4.12349592      11.95771721
Pd       6.83926769       4.12202631      11.96091035
Pd       9.56728621       4.13975942      11.94281254
Pd      12.36578195       4.13265160      11.93417299
Pd       1.37110082       6.89256210      11.94010419
Pd       4.13935064       6.87026939      11.96482277
Pd       6.87097415       6.85831372      11.95140951
Pd       9.64205429       6.82915781      11.94515418
Pd      12.39111484       6.85622887      11.94896407
Pd       1.37945436       9.64859327      11.95847619
Pd       4.11777592       9.66324146      11.95099537
Pd       6.89476706       9.64088005      11.95142944
Pd       9.64982872       9.59779534      11.89439304
Pd      12.42487279       9.60955999      11.94161946
Pd       1.36244812      12.41214733      11.98335034
Pd       4.11635244      12.39739897      12.00172113
Pd       6.86816975      12.39901143      11.97280504
Pd       9.63028672      12.36702810      11.91406436
Pd      12.38965870      12.36575026      11.98836244
Pd       0.05123279       0.04565611      14.06090717
Pd       2.76870358       0.00190480      14.07138852
Pd       5.48208040       0.08455449      14.08674962
Pd       8.26845904      13.74975774      13.96160567
Pd      11.01222232       0.06622337      13.91118595
Pd      13.63716859       2.78751476      14.00565479
Pd       2.64527217       2.70977829      14.11278129
Pd       5.37385942       2.77946660      13.88757820
Pd       8.20428195       2.72481649      13.96409498
Pd      10.91909331       2.74518587      13.94662209
Pd       0.02476225       5.55684714      14.00318066
Pd       2.78354037       5.60518054      13.89913777
Pd       5.47173283       5.45846804      14.05391993
Pd       8.25341949       5.49660432      13.95792280
Pd      11.01562276       5.43990839      13.91797864
Pd      13.73634713       8.26126516      13.92892465
Pd       2.81134471       8.30813793      13.95107132
Pd       5.52529544       8.22984485      14.01878936
Pd       8.27978001       8.25310203      13.95100967
Pd      11.01523458       8.23010174      13.97695680
Pd      13.64784018      10.96708392      14.03774007
Pd       2.72570272      11.02179872      13.94783876
Pd       5.49421923      11.01360591      13.90424031
Pd       8.26749139      10.97985820      13.99201476
Pd      10.92766737      10.96682222      13.88792518
Pd      12.43638202       6.75963924      16.24657829
Pd       9.12312551       9.64263386      16.30318554
Pd       1.66970629      12.48599837      16.63032163
Pd       1.39187607       7.29288611      16.00880484
Pd      12.26210779       9.49615800      16.20242487
Pd       9.37667286       1.06051066      16.55517225
Pd       3.92439620       1.07450537      16.57014225
Pd       5.66038195       9.84994667      16.45863429
Pd       4.12242320      12.05676455      15.94969121
Pd      12.10425433      12.32641113      16.07178652
Pd       1.77284629       4.60837428      16.09586114
Pd       6.49189855       2.07099956      16.02222010
Pd      11.67273017       3.49091382      16.69514656
Pd       2.75054978       9.69146304      16.41747309
Pd       7.01596814       7.14144436      16.25383337
Pd       6.89296947      13.06615522      16.54929297
Pd       9.65031838       6.88640464      15.96325796
Pd       8.35048266       4.07935115      16.34227621
Pd       0.64633430       2.17071294      17.06473095
Pd       4.07857598       7.06399744      16.37854499
O        9.79046983       2.96081236      17.13965885
O       10.76717165      10.79187928      15.96979519
O       13.69977148      13.44125866      16.07321525
O       12.57152077       2.10229058      17.67135677
O       11.13569411       0.45513498      15.87518984
O        4.25125582       8.77878374      17.31039239
O        2.51518280       2.46050908      16.18166236
O        1.41153334       0.93188158      18.40869092
O        8.72479601      13.05911295      15.85849703
O        1.31975656      10.83183438      15.59627714
O        2.37993052       0.13673019      17.86167133
O        3.65525049       5.24427306      15.81988291
O        6.88191123       5.26708942      15.65803733
O        7.42986113       8.89089855      16.99884239
O        7.50533708       1.06953048      17.38892697
O       13.65725396       3.69801560      15.91942701
O       11.12478952       5.30475622      15.97774576
O       13.58349002       8.20610742      16.89468834
O        5.02633534      13.29593140      17.23802709
O        6.80947692      11.21170022      15.58832387
115
Lattice="13.75323 0.0 0.0 0.0 13.75323 0.0 0.0 0.0 23.89" Properties=species:S:1:pos:R:3 entry_id=9 rank=3 energy=-572.5198974609375 parent_id=8 pbc="T T F"
Pd       0.00000000       0.00000000      10.00000000
Pd       2.75064538       0.00000000      10.00000000
Pd       5.50129076       0.00000000      10.00000000
Pd       8.25193614       0.00000000      10.00000000
Pd      11.00258152       0.00000000      10.00000000
Pd       0.00000000       2.75064538      10.00000000
Pd       2.75064538       2.75064538      10.00000000
Pd       5.50129076       2.75064538      10.00000000
Pd       8.25193614       2.75064538      10.00000000
Pd      11.00258152       2.75064538      10.00000000
Pd       0.00000000       5.50129076      10.00000000
Pd       2.75064538       5.50129076      10.00000000
Pd       5.50129076       5.50129076      10.00000000
Pd       8.25193614       5.50129076      10.00000000
Pd      11.00258152       5.50129076      10.00000000
Pd       0.00000000       8.25193614      10.00000000
Pd       2.75064538       8.25193614      10.00000000
Pd       5.50129076       8.25193614      10.00000000
Pd       8.25193614       8.25193614      10.00000000
Pd      11.00258152       8.25193614      10.00000000
Pd       0.00000000      11.00258152      10.00000000
Pd       2.75064538      11.00258152      10.00000000
Pd       5.50129076      11.00258152      10.00000000
Pd       8.25193614      11.00258152      10.00000000
Pd      11.00258152      11.00258152      10.00000000
Pd       1.35840170       1.39707000      12.04135041
Pd       4.08659871       1.40763292      12.00960372
Pd       6.82446202       1.38415397      11.98625019
Pd       9.57512057       1.39592898      11.89594876
Pd      12.38684272       1.37174114      11.92044161
Pd       1.38288940       4.11578492      11.99115358
Pd       4.09066097       4.12995107      12.03404957
Pd       6.82002767       4.11966489      11.99481324
Pd       9.56728621       4.13975942      11.94281254
Pd      12.36578195       4.13265160      11.93417299
Pd       1.37110082       6.89256210      11.94010419
Pd       4.13935064       6.87026939      11.96482277
Pd       6.87097415       6.85831372      11.95140951
Pd       9.64205429       6.82915781      11.94515418
Pd      12.39111484       6.85622887      11.94896407
Pd       1.38106540       9.65979349      11.97550936
Pd       4.11777592       9.66324146      11.95099537
Pd       6.89476706       9.64088005      11.95142944
Pd       9.64982872       9.59779534      11.89439304
Pd      12.42487279       9.60955999      11.94161946
Pd       1.36222278      12.42214282      11.99235913
Pd       4.10552471      12.41545366      11.97407709
Pd       6.86816975      12.39901143      11.97280504
Pd       9.63028672      12.36702810      11.91406436
Pd      12.39722658      12.35702754      11.99491703
Pd       0.03361421       0.04152902      14.06422007
Pd       2.79465733       0.07236685      14.08823116
Pd       5.50193058      13.73234315      14.00337620
Pd       8.26637514       0.02151805      13.89172352
Pd      11.00426975       0.03026695      13.88991066
Pd      13.61966787       2.77256503      13.99102152
Pd       2.62669731       2.79304739      14.13439059
Pd       5.44320251       2.68389674      14.05178924
Pd       8.23446697       2.73573390      13.97048079
Pd      10.90878678       2.70173941      13.91449033
Pd       0.02487222       5.52051330      13.92103327
Pd       2.71637231       5.57560278      14.02719991
Pd       5.42284022       5.46629572      14.08450410
Pd       8.29588162       5.49490890      13.98870502
Pd      11.01198253       5.42095827      13.95863993
Pd       0.08180109       8.26446703      13.96312202
Pd       2.84961442       8.30130938      13.93531537
Pd       5.60354161       8.26887078      13.96973058
Pd       8.31707283       8.27950155      13.96317668
Pd      11.05484160       8.25418723      13.90825764
Pd      13.65466945      11.00228286      14.07394609
Pd       2.78321622      11.08977545      13.94898094
Pd       5.48761581      10.97054795      13.89486493
Pd       8.17992796      11.00693736      13.98329089
Pd      10.89951558      11.00997722      13.92268377
Pd      12.51477759       6.74802057      16.08290069
Pd       9.15655685       9.73243026      16.42806329
Pd       1.84627676      12.52974839      16.52102850
Pd       1.64918104       7.28524658      16.25348346
Pd      12.15934870       9.64563116      16.06743978
Pd       9.27317540       1.38913742      16.35232870
Pd       3.99471971       1.28924816      16.67163415
Pd       5.99591259       9.94210328      16.43744917
Pd       4.40646256      12.15024050      16.00334975
Pd      12.13566108      12.50201136      16.11546744
Pd       0.87925965       4.73429101      16.40787388
Pd       3.92506299       4.41162420      16.33157392
Pd      11.23206063       3.41591182      16.59525090
Pd       2.96391159       9.75400639      16.32302106
Pd       7.15539772       7.07059325      16.27840796
Pd       7.05146629      13.25650992      16.38567496
Pd       9.78407289       7.10497885      15.96506841
Pd       7.38469986       3.33685899      16.45811921
Pd       0.43349040       2.00307794      16.95365761
Pd       4.37051798       7.08090194      16.01834913
O        9.29422456       3.19344684      17.13154087
O       10.72358488      11.01090709      16.02756593
O        0.04260945      13.54884734      16.09710170
O       11.97749174       1.66218094      17.47801962
O       11.20379475       0.57220398      17.11825860
O        4.49714405       8.81732432      17.08202368
O        2.58107379       2.60921877      16.20677446
O        1.47499768       0.97682398      18.27426832
O        8.91477463      13.33755438      15.75513305
O        1.43731888      10.84734015      15.57398098
O        2.50840618       0.23971844      17.70441598
O        2.52062864       5.65485408      17.05877135
O        6.95680549       5.24952076      15.55289337
O        7.56743259       8.75901362      17.15574779
O        5.38241669       2.95473787      16.09331486
O       13.18390517       3.42151521      15.93781111
O       11.05693920       5.38792652      16.04978513
O       13.67919051       8.35412599      16.08800205
O        5.26311924      13.57317010      17.16034709
O        7.54373255      11.13038521      15.99994647
115
Lattice="13.75323 0.0 0.0 0.0 13.75323 0.0 0.0 0.0 23.89" Properties=species:S:1:pos:R:3 entry_id=8 rank=4 energy=-572.518310546875 parent_id=5 pbc="T T F"
Pd       0.00000000       0.00000000      10.00000000
Pd       2.75064538       0.00000000      10.00000000
Pd       5.50129076       0.00000000      10.00000000
Pd       8.25193614       0.00000000      10.00000000
Pd      11.00258152       0.00000000      10.00000000
Pd       0.00000000       2.75064538      10.00000000
Pd       2.75064538       2.75064538      10.00000000
Pd       5.50129076       2.75064538      10.00000000
Pd       8.25193614       2.75064538      10.00000000
Pd      11.00258152       2.75064538      10.00000000
Pd       0.00000000       5.50129076      10.00000000
Pd       2.75064538       5.50129076      10.00000000
Pd       5.50129076       5.50129076      10.00000000
Pd       8.25193614       5.50129076      10.00000000
Pd      11.00258152       5.50129076      10.00000000
Pd       0.00000000       8.25193614      10.00000000
Pd       2.75064538       8.25193614      10.00000000
Pd       5.50129076       8.25193614      10.00000000
Pd       8.25193614       8.25193614      10.00000000
Pd      11.00258152       8.25193614      10.00000000
Pd       0.00000000      11.00258152      10.00000000
Pd       2.75064538      11.00258152      10.00000000
Pd       5.50129076      11.00258152      10.00000000
Pd       8.25193614      11.00258152      10.00000000
Pd      11.00258152      11.00258152      10.00000000
Pd       1.36399092       1.40170940      12.03766347
Pd       4.09022031       1.40836268      12.01263161
Pd       6.82590079       1.38481499      11.98886942
Pd       9.57512057       1.39592898      11.89594876
Pd      12.38684272       1.37174114      11.92044161
Pd       1.38456418       4.11971539      11.99069565
Pd       4.09379316       4.12680744      12.03761916
Pd       6.82308397       4.11830874      11.99648340
Pd       9.56728621       4.13975942      11.94281254
Pd      12.36578195       4.13265160      11.93417299
Pd       1.37110082       6.89256210      11.94010419
Pd       4.13935064       6.87026939      11.96482277
Pd       6.87097415       6.85831372      11.95140951
Pd       9.64205429       6.82915781      11.94515418
Pd      12.39111484       6.85622887      11.94896407
Pd       1.37989869       9.66176750      11.97451322
Pd       4.11777592       9.66324146      11.95099537
Pd       6.89476706       9.64088005      11.95142944
Pd       9.64982872       9.59779534      11.89439304
Pd      12.42487279       9.60955999      11.94161946
Pd       1.36023822      12.42357977      11.98647637
Pd       4.10414454      12.41761020      11.97100449
Pd       6.86816975      12.39901143      11.97280504
Pd       9.63028672      12.36702810      11.91406436
Pd      12.39474358      12.35748121      11.99403112
Pd       0.03591982       0.04804807      14.05101996
Pd       2.79557173       0.07657176      14.08730083
Pd       5.50404404      13.73162379      14.00142636
Pd       8.26719386       0.02371030      13.89308914
Pd      11.00371011       0.03261758      13.88966859
Pd      13.62465836       2.78125056      13.98711054
Pd       2.62530770       2.79752351      14.14499317
Pd       5.44255741       2.67945556      14.06061057
Pd       8.23999481       2.73779489      13.97054198
Pd      10.91667112       2.70365052      13.91395296
Pd       0.02635615       5.52808562      13.92341051
Pd       2.72173298       5.57859810      14.01882592
Pd       5.43301510       5.46283705      14.08560958
Pd       8.30105041       5.49770045      13.99168326
Pd      11.01618075       5.42370426      13.96055530
Pd       0.07523486       8.26979145      13.96175449
Pd       2.84414870       8.30566002      13.92985636
Pd       5.59818013       8.26664782      13.97864259
Pd       8.31392509       8.28465402      13.96387422
Pd      11.04935020       8.25451589      13.90842044
Pd      13.65197345      11.00640684      14.07079234
Pd       2.78322337      11.09853026      13.94297141
Pd       5.48439733      10.97141042      13.89297250
Pd       8.17466955      11.01529531      13.98673420
Pd      10.89440552      11.01127134      13.92207368
Pd      12.51018999       6.75945756      16.08221708
Pd       9.14966622       9.73820914      16.42200851
Pd       1.84889276      12.52258227      16.52698626
Pd       1.63447103       7.32668716      16.26216477
Pd      12.14355414       9.65800214      16.06802053