115
Lattice="13.75323 0.0 0.0 0.0 13.75323 0.0 0.0 0.0 23.89" Properties=species:S:1:pos:R:3 entry_id=22 rank=0 energy=-573.0081176757812 parent_id=18 pbc="T T F"
Pd       0.00000000       0.00000000      10.00000000
Pd       2.75064538       0.00000000      10.00000000
Pd       5.50129076       0.00000000      10.00000000
Pd       8.25193614       0.00000000      10.00000000
Pd      11.00258152       0.00000000      10.00000000
Pd       0.00000000       2.75064538      10.00000000
Pd       2.75064538       2.75064538      10.00000000
Pd       5.50129076       2.75064538      10.00000000
Pd       8.25193614       2.75064538      10.00000000
Pd      11.00258152       2.75064538      10.00000000
Pd       0.00000000       5.50129076      10.00000000
Pd       2.75064538       5.50129076      10.00000000
Pd       5.50129076       5.50129076      10.00000000
Pd       8.25193614       5.50129076      10.00000000
Pd      11.00258152       5.50129076      10.00000000
Pd       0.00000000       8.25193614      10.00000000
Pd       2.75064538       8.25193614      10.00000000
Pd       5.50129076       8.25193614      10.00000000
Pd       8.25193614       8.25193614      10.00000000
Pd      11.00258152       8.25193614      10.00000000
Pd       0.00000000      11.00258152      10.00000000
Pd       2.75064538      11.00258152      10.00000000
Pd       5.50129076      11.00258152      10.00000000
Pd       8.25193614      11.00258152      10.00000000
Pd      11.00258152      11.00258152      10.00000000
Pd       1.35208575       1.38641073      12.02810521
Pd       4.07464533       1.36195451      11.98279202
Pd       6.84210732       1.35695565      11.98709344
Pd       9.57512057       1.39592898      11.89594876
Pd      12.38684272       1.37174114      11.92044161
Pd       1.36498616       4.12046921      11.99217217
Pd       4.08773205       4.11739006      11.96418831
Pd       6.83181652       4.12606551      11.96739523
Pd       9.56728621       4.13975942      11.94281254
Pd      12.36578195       4.13265160      11.93417299
Pd       1.37110082       6.89256210      11.94010419
Pd       4.13935064       6.87026939      11.96482277
Pd       6.87097415       6.85831372      11.95140951
Pd       9.64205429       6.82915781      11.94515418
Pd      12.39111484       6.85622887      11.94896407
Pd       1.38144182       9.64802914      11.96032824
Pd       4.11777592       9.66324146      11.95099537
Pd       6.89476706       9.64088005      11.95142944
Pd       9.64982872       9.59779534      11.89439304
Pd      12.42487279       9.60955999      11.94161946
Pd       1.36944153      12.41062452      11.98375288
Pd       4.12063609      12.39562398      12.00048675
Pd       6.86816975      12.39901143      11.97280504
Pd       9.63028672      12.36702810      11.91406436
Pd      12.39752818      12.36354852      11.98598010
Pd       0.06857867       0.03832935      14.06651919
Pd       2.78279728       0.00049595      14.07215441
Pd       5.49594302       0.07041611      14.08431546
Pd       8.27980564      13.74906011      13.95951341
Pd      11.02880084       0.05981411      13.90666387
Pd      13.64722687       2.78083977      14.00980746
Pd       2.65648051       2.70707493      14.09998676
Pd       5.38154396       2.75824687      13.89309177
Pd       8.21234485       2.72580037      13.95494713
Pd      10.92532746       2.74170242      13.94642267
Pd       0.02912760       5.54729051      14.00800001
Pd       2.77187935       5.61834907      13.87576547
Pd       5.45913847       5.43007873      14.09319555
Pd       8.24858328       5.49302466      13.95743341
Pd      11.02029603       5.43767122      13.91346916
Pd      13.74324995       8.25195526      13.92998384
Pd       2.82420542       8.31429840      13.95076727
Pd       5.53693723       8.21594484      14.02314992
Pd       8.28773821       8.24694756      13.95389404
Pd      11.02130415       8.22894006      13.98050808
Pd      13.66445600      10.95773551      14.03870387
Pd       2.73754900      11.02319554      13.95159821
Pd       5.50431441      11.00286489      13.90443973
Pd       8.27777695      10.97438322      13.99608067
Pd      10.93949616      10.96455712      13.88548064
Pd      12.46905298       6.75060436      16.25076622
Pd       9.15430791       9.63073344      16.30083256
Pd       1.70565227      12.48880841      16.63036212
Pd       1.42642276       7.27085267      15.99615063
Pd      12.30192496       9.47898017      16.20627968
Pd       9.42661315       1.05490524      16.54475594
Pd       3.97844244       1.07121893      16.56400024
Pd       5.68612197       9.84589372      16.46311658
Pd       4.15117384      12.04963734      15.95275971
Pd      12.13715868      12.30634757      16.06975755
Pd       1.87989769       4.60480517      16.09178058
Pd       6.53551629       2.06522873      16.01698039
Pd      11.73466536       3.49243315      16.68594444
Pd       2.77491653       9.68489451      16.42222392
Pd       7.04872378       7.14000193      16.26582550
Pd       6.93467010      13.06530889      16.54576048
Pd       9.67546007       6.86721962      15.96439672
Pd       8.40429581       4.07339083      16.34150077
Pd       0.71347689       2.18779128      17.06111778
Pd       4.12739157       7.06735354      16.37546659
O        9.85225984       2.95280011      17.12852897
O       10.80368665      10.76976214      15.96707012
O       13.72988942      13.42377294      16.07851946
O       12.64058790       2.10929212      17.66254412
O       11.17992772       0.43837063      15.86971894
O        4.27551260       8.77568297      17.31955683
O        2.57658439       2.46828293      16.17480620
O        1.47399020       0.94711214      18.40519625
O        8.76336440      13.05506586      15.85006306
O        1.34443443      10.82852370      15.60346394
O        2.43263074       0.14110743      17.85276203
O        3.77850308       5.24588190      15.76483304
O        6.92461730       5.26185943      15.67201561
O        7.45865733       8.89202934      17.00339540
O        7.55576286       1.06901876      17.38261193
O       13.73018342       3.71976669      15.91226527
O       11.16294201       5.29530046      15.97070331
O       13.62641604       8.18891527      16.89786613
O        5.06869036      13.28729225      17.23648428
O        6.83031801      11.21084551      15.58967557
