115
Lattice="13.75323 0.0 0.0 0.0 13.75323 0.0 0.0 0.0 23.89" Properties=species:S:1:pos:R:3 trial_index=3 seed_entry_id=2 discovered_entry_id=3 energy=-571.8967895507812 status=accepted pbc="T T F"
Pd       0.00000000       0.00000000      10.00000000
Pd       2.75064538       0.00000000      10.00000000
Pd       5.50129076       0.00000000      10.00000000
Pd       8.25193614       0.00000000      10.00000000
Pd      11.00258152       0.00000000      10.00000000
Pd       0.00000000       2.75064538      10.00000000
Pd       2.75064538       2.75064538      10.00000000
Pd       5.50129076       2.75064538      10.00000000
Pd       8.25193614       2.75064538      10.00000000
Pd      11.00258152       2.75064538      10.00000000
Pd       0.00000000       5.50129076      10.00000000
Pd       2.75064538       5.50129076      10.00000000
Pd       5.50129076       5.50129076      10.00000000
Pd       8.25193614       5.50129076      10.00000000
Pd      11.00258152       5.50129076      10.00000000
Pd       0.00000000       8.25193614      10.00000000
Pd       2.75064538       8.25193614      10.00000000
Pd       5.50129076       8.25193614      10.00000000
Pd       8.25193614       8.25193614      10.00000000
Pd      11.00258152       8.25193614      10.00000000
Pd       0.00000000      11.00258152      10.00000000
Pd       2.75064538      11.00258152      10.00000000
Pd       5.50129076      11.00258152      10.00000000
Pd       8.25193614      11.00258152      10.00000000
Pd      11.00258152      11.00258152      10.00000000
Pd       1.41022244       1.38110723      11.97563068
Pd       4.13861319       1.40008431      12.04774926
Pd       6.84923772       1.38645782      11.97626660
Pd       9.57512057       1.39592898      11.89594876
Pd      12.38684272       1.37174114      11.92044161
Pd       1.36520481       4.13388816      11.99149252
Pd       4.09919905       4.10588227      11.97914998
Pd       6.85280251       4.09602973      11.97998046
Pd       9.56728621       4.13975942      11.94281254
Pd      12.36578195       4.13265160      11.93417299
Pd       1.37110082       6.89256210      11.94010419
Pd       4.13935064       6.87026939      11.96482277
Pd       6.87097415       6.85831372      11.95140951
Pd       9.64205429       6.82915781      11.94515418
Pd      12.39111484       6.85622887      11.94896407
Pd       1.39995307       9.62545388      11.99350011
Pd       4.11777592       9.66324146      11.95099537
Pd       6.89476706       9.64088005      11.95142944
Pd       9.64982872       9.59779534      11.89439304
Pd      12.42487279       9.60955999      11.94161946
Pd      12.39646237      12.37469503      11.99745611
Pd       4.12910291      12.41148372      11.98950568
Pd       6.86816975      12.39901143      11.97280504
Pd       9.63028672      12.36702810      11.91406436
Pd       0.06179007       0.08402004      13.93842648
Pd      12.82095413      12.91564766      16.10243125
Pd       2.82330220      10.84080868      13.97933189
Pd       5.70274164       0.08005095      13.99452870
Pd       8.35516812      13.69283319      13.94672607
Pd      10.90972571       2.72856600      13.84479694
Pd      11.61857485       1.65442376      16.18022556
Pd      13.63808493       2.77782687      13.93081751
Pd       2.73672344      13.73801622      14.06816431
Pd       5.43412775       2.85036196      14.13392196
Pd       8.16644028       2.67111445      13.98613747
Pd       0.00139090       5.56093638      13.98881547
Pd       2.68220267       2.73441731      14.05715519
Pd       5.48916353       5.52594578      13.90104808
Pd       8.21167191       5.44937414      14.01046788
Pd      10.99088414       5.46360216      13.96301202
Pd      11.00491186       8.25293439      13.91803371
Pd       0.07757628      11.09454123      14.08580714
Pd       5.29702450       8.19717660      13.90606723
Pd       8.21841754       8.22213193      13.95592956
Pd      11.10621476      11.03435643      14.01114449
Pd       1.40324044      12.37035507      11.99714673
Pd       0.07323268       8.36349313      13.96039431
Pd       5.59493920      10.97195122      13.88387268
Pd       8.34414612      10.98683788      13.96960539
Pd      11.05467743       0.00446844      14.06775336
Pd      12.30093149       6.90283279      15.98902323
Pd       9.79913754       9.53485114      15.93013806
Pd       1.76161588      12.17844653      16.06167660
Pd       1.57036904       6.95197814      16.04972976
Pd      13.38305691       9.99022925      16.88901149
Pd       9.18283170       0.60852443      16.43366754
Pd       4.36301510       0.12661540      17.42806771
Pd       6.36162892       9.38211901      16.04624385
Pd       4.57500743      11.52883143      16.20350553
Pd      10.75879438      11.53568510      17.35068324
Pd       1.09700235       4.17862451      16.00011102
Pd       3.80210228       3.58672465      16.78249462
Pd       9.61192422       4.01354255      16.07263440
Pd       3.07382435       9.26899225      16.27509066
Pd       6.58279905       5.74851668      16.30527176
Pd       7.22086884      12.35922702      16.65291901
Pd       9.10585184       6.87483435      16.22558393
Pd       6.46759375       2.12944952      16.82526850
Pd       1.15064204       1.20850623      16.51238169
Pd       2.79779532       5.54448211      13.94531286
O        8.37780531       2.40353100      16.04175084
O       11.40322251       9.63271275      17.16922854
O       12.76042991      11.70741340      17.70727009
O       10.41302793       3.55066343      17.95906205
O       11.23676126       2.53840526      17.97320073
O        4.71486825       8.31884315      15.86240249
O        4.31736790      13.42293365      15.35744001
O        2.01665912       2.97019193      17.36558327
O        9.23038538      12.68536325      17.39244379
O        1.59065984      10.36538428      16.95612425
O        2.38301700      13.66819120      17.34519216
O        2.78321670       5.36543778      16.01697160
O        5.71977923       3.94399342      16.10298628
O        7.32821567       7.51711877      16.72064019
O        4.72034208       2.13943611      17.76147069
O       13.52220851       2.58955050      15.98730907
O       10.72683231       5.70795809      16.05917961
O        0.03998273       8.20398856      16.05064358
O        6.38121000       0.18216662      17.51966269
O        7.93569268      10.58580390      16.00065302
