115
Lattice="13.75323 0.0 0.0 0.0 13.75323 0.0 0.0 0.0 23.89" Properties=species:S:1:pos:R:3 trial_index=1 seed_entry_id=0 discovered_entry_id=1 energy=-571.4613037109375 status=accepted pbc="T T F"
Pd       0.00000000       0.00000000      10.00000000
Pd       2.75064538       0.00000000      10.00000000
Pd       5.50129076       0.00000000      10.00000000
Pd       8.25193614       0.00000000      10.00000000
Pd      11.00258152       0.00000000      10.00000000
Pd       0.00000000       2.75064538      10.00000000
Pd       2.75064538       2.75064538      10.00000000
Pd       5.50129076       2.75064538      10.00000000
Pd       8.25193614       2.75064538      10.00000000
Pd      11.00258152       2.75064538      10.00000000
Pd       0.00000000       5.50129076      10.00000000
Pd       2.75064538       5.50129076      10.00000000
Pd       5.50129076       5.50129076      10.00000000
Pd       8.25193614       5.50129076      10.00000000
Pd      11.00258152       5.50129076      10.00000000
Pd       0.00000000       8.25193614      10.00000000
Pd       2.75064538       8.25193614      10.00000000
Pd       5.50129076       8.25193614      10.00000000
Pd       8.25193614       8.25193614      10.00000000
Pd      11.00258152       8.25193614      10.00000000
Pd       0.00000000      11.00258152      10.00000000
Pd       2.75064538      11.00258152      10.00000000
Pd       5.50129076      11.00258152      10.00000000
Pd       8.25193614      11.00258152      10.00000000
Pd      11.00258152      11.00258152      10.00000000
Pd       1.29328299       1.43931950      12.13058622
Pd       4.06620629       1.35956839      11.90910355
Pd       6.83842756       1.37370196      11.95730809
Pd       9.57512057       1.39592898      11.89594876
Pd      12.38684272       1.37174114      11.92044161
Pd       1.32847158       4.15994156      11.97167230
Pd       4.03885944       4.11574660      12.01294713
Pd       6.80171491       4.11244015      11.98578792
Pd       9.56728621       4.13975942      11.94281254
Pd      12.36578195       4.13265160      11.93417299
Pd       1.37110082       6.89256210      11.94010419
Pd       4.13935064       6.87026939      11.96482277
Pd       6.87097415       6.85831372      11.95140951
Pd       9.64205429       6.82915781      11.94515418
Pd      12.39111484       6.85622887      11.94896407
Pd       1.39764351       9.66857525      11.95012294
Pd       4.11777592       9.66324146      11.95099537
Pd       6.89476706       9.64088005      11.95142944
Pd       9.64982872       9.59779534      11.89439304
Pd      12.42487279       9.60955999      11.94161946
Pd       1.39433697      12.48691262      11.99960940
Pd       4.14166741      12.38298134      11.97954841
Pd       6.86816975      12.39901143      11.97280504
Pd       9.63028672      12.36702810      11.91406436
Pd      12.40770071      12.41227571      11.97845962
Pd      13.73330965      13.72977078      14.34313320
Pd       2.83166793       0.12788258      14.03569034
Pd       5.58038040      13.63406965      14.00742542
Pd       8.31575770       0.04993948      13.89631997
Pd      11.00042748       0.15438008      13.90875984
Pd      11.06222511       1.66533150      16.08796619
Pd      12.89843965       2.71342307      14.13247943
Pd       1.85872656       3.06577556      14.35344969
Pd       5.35628117       2.58177255      13.94915462
Pd       8.14673445       2.74328587      13.95841043
Pd      13.73521223       5.45667348      14.04508544
Pd       2.68060620       5.66993066      14.02302707
Pd       5.51310900       5.28182778      14.08931123
Pd       8.24765745       5.44584423      13.94747699
Pd      11.02495413       5.42922390      13.93622314
Pd       0.00435341       8.25129329      13.92044159
Pd       2.79957376       8.40116466      13.94523766
Pd       5.51075072       8.12634030      13.95573237
Pd       8.29223806       8.12401983      13.92772984
Pd      11.03089119       8.28306018      14.01883063
Pd       0.03134752      11.01491601      13.86533836
Pd       2.80218564      11.14823626      13.95536994
Pd       5.56077945      10.86057765      14.00965509
Pd       8.30732733      11.11335203      13.89663897
Pd      11.04778786      11.03852963      13.90997159
Pd      12.40640823       7.10547199      16.19778229
Pd      10.00606693       9.86143694      16.19471803
Pd       1.92099507      12.68913288      16.37523670
Pd       1.49349580       7.38082715      16.01708940
Pd      13.28009924      10.42683363      16.45201770
Pd       8.59643687       0.95319191      16.48179333
Pd       4.58500076       0.90846666      16.74790036
Pd       6.49201196       9.40338610      16.24139598
Pd       4.46705817      12.13625586      16.02064908
Pd      10.93192061      12.57312729      16.27401393
Pd       0.14011299       4.43289725      16.58857367
Pd       2.91321669       4.24460827      16.88420955
Pd       9.55414128       4.27805113      16.06888636
Pd       3.12118033       9.81135522      16.38586398
Pd       6.83203740       6.48698422      15.99531895
Pd       7.11676451      12.37890443      15.97190873
Pd       9.43895062       7.10597444      16.40767816
Pd       6.21049702       3.27999240      16.41028291
Pd       0.92844382       1.57419999      16.51590780
Pd       4.27980555       7.24621368      16.31461329
O        8.13003223       2.86802988      16.04834676
O       11.47821769      10.55019493      17.21374626
O       12.89603548      12.40186017      15.89423711
O       10.21320901       3.63100703      17.92918300
O       10.56066050       2.36133101      17.93422963
O        4.74741478       8.98222007      17.10372110
O        3.51742982       1.98879879      14.59330177
O        1.42627752       3.18406867      17.69050453
O        9.05460513      12.84706880      16.85642434
O        1.45178279      10.81058387      15.86866518
O        2.57129038       0.62884505      17.06824309
O        1.50574784       5.72549980      17.16257019
O        3.99550947       5.42294241      15.63459565
O        7.75089340       7.80599025      17.15196854
O        4.44653488       2.99374644      17.13657985
O       12.95646132       2.62688007      16.16638311
O       10.90593319       5.79393739      15.97572596
O       13.67189464       8.47268855      16.82524090
O        6.46046702       0.27777513      16.96985067
O        8.24472697       9.66646198      15.31769513
