115
Lattice="13.75323 0.0 0.0 0.0 13.75323 0.0 0.0 0.0 23.89" Properties=species:S:1:pos:R:3 trial_index=2 seed_entry_id=1 discovered_entry_id=2 energy=-570.790283203125 status=accepted pbc="T T F"
Pd       0.00000000       0.00000000      10.00000000
Pd       2.75064538       0.00000000      10.00000000
Pd       5.50129076       0.00000000      10.00000000
Pd       8.25193614       0.00000000      10.00000000
Pd      11.00258152       0.00000000      10.00000000
Pd       0.00000000       2.75064538      10.00000000
Pd       2.75064538       2.75064538      10.00000000
Pd       5.50129076       2.75064538      10.00000000
Pd       8.25193614       2.75064538      10.00000000
Pd      11.00258152       2.75064538      10.00000000
Pd       0.00000000       5.50129076      10.00000000
Pd       2.75064538       5.50129076      10.00000000
Pd       5.50129076       5.50129076      10.00000000
Pd       8.25193614       5.50129076      10.00000000
Pd      11.00258152       5.50129076      10.00000000
Pd       0.00000000       8.25193614      10.00000000
Pd       2.75064538       8.25193614      10.00000000
Pd       5.50129076       8.25193614      10.00000000
Pd       8.25193614       8.25193614      10.00000000
Pd      11.00258152       8.25193614      10.00000000
Pd       0.00000000      11.00258152      10.00000000
Pd       2.75064538      11.00258152      10.00000000
Pd       5.50129076      11.00258152      10.00000000
Pd       8.25193614      11.00258152      10.00000000
Pd      11.00258152      11.00258152      10.00000000
Pd       1.38531241       1.26431327      11.99730644
Pd       4.11296867       1.39548253      12.02905780
Pd       6.82598938       1.38606795      12.00196574
Pd       9.57512057       1.39592898      11.89594876
Pd      12.38684272       1.37174114      11.92044161
Pd       1.37598148       4.09756559      11.97732209
Pd       4.11399798       4.10278886      11.96873160
Pd       6.86658571       4.08971876      11.98581486
Pd       9.56728621       4.13975942      11.94281254
Pd      12.36578195       4.13265160      11.93417299
Pd       1.37110082       6.89256210      11.94010419
Pd       4.13935064       6.87026939      11.96482277
Pd       6.87097415       6.85831372      11.95140951
Pd       9.64205429       6.82915781      11.94515418
Pd      12.39111484       6.85622887      11.94896407
Pd       1.35038579       9.77579199      11.95913157
Pd       4.11777592       9.66324146      11.95099537
Pd       6.89476706       9.64088005      11.95142944
Pd       9.64982872       9.59779534      11.89439304
Pd      12.42487279       9.60955999      11.94161946
Pd      12.55484360      12.36718580      12.02331991
Pd       4.08023670      12.42819651      11.90823640
Pd       6.86816975      12.39901143      11.97280504
Pd       9.63028672      12.36702810      11.91406436
Pd       0.08283245       0.07550613      14.08913056
Pd      12.33513167      12.68198646      15.91444246
Pd       2.78725802      11.06471375      13.84497286
Pd       5.58465708       0.13925847      14.05346352
Pd       8.27048458      13.68324084      13.92716032
Pd      10.91451846       2.73914963      13.83641139
Pd      11.86389841       1.61920303      16.05612624
Pd      13.66610927       2.78257245      13.90650567
Pd       2.74561797       0.00978887      14.06384226
Pd       5.43644374       2.84547249      14.12719655
Pd       8.17176733       2.64929112      14.01630532
Pd       0.00199691       5.56397099      13.97133928
Pd       2.70067831       2.71492041      14.03993553
Pd       5.50708870       5.51612445      13.90619935
Pd       8.23048463       5.43428059      14.01748284
Pd      10.99317930       5.45530573      13.95565313
Pd      10.96219579       8.23547709      13.93830692
Pd      13.69681867       8.36564067      13.94701703
Pd       5.36733476       8.19019038      14.00614995
Pd       8.20846215       8.22099643      13.97491744
Pd      11.12674532      11.00811893      13.96002574
Pd       0.12521210      11.09895095      14.12997208
Pd       2.66292112       8.26578562      13.80977818
Pd       5.59190348      10.98191965      13.92159680
Pd       8.35852560      10.97620820      13.97597187
Pd      11.02813717       0.01439664      13.89355958
Pd      12.26182044       6.82990344      16.01220199
Pd       9.85859446       9.55340674      15.98513466
Pd       1.93949817      12.30709330      16.51246394
Pd       1.55261992       7.00539200      16.05600235
Pd      13.23591015       9.98717883      16.79845775
Pd       9.58518153       0.35640635      16.23199650
Pd       4.58208745       0.25945419      17.37145095
Pd       6.44972805       9.46974154      16.11843868
Pd       4.72379632      11.53059061      16.63362356
Pd      10.62632802      11.42608735      17.66144889
Pd       1.16867580       4.28626096      15.99609733
Pd       3.89231059       3.70620827      16.77390594
Pd       9.64786787       3.88877826      16.07943757
Pd       3.06404245       9.41010490      16.13376451
Pd       6.64936498       5.83997010      16.29055410
Pd       7.34894936      12.45727707      16.72327673
Pd       9.18527956       6.86547161      16.20794344
Pd       6.58780460       2.20596530      16.77072867
Pd       1.38950636       1.39603262      16.38777394
Pd       2.80803247       5.48316186      13.94369623
O        8.49430028       2.23393139      16.04378074
O       11.36084567       9.57882683      17.40019828
O       12.70369868      11.71451890      17.63424989
O       10.54726908       3.40233976      17.91033051
O       11.43445427       2.45004102      17.87520647
O        4.77525937       8.44554362      16.01280240
O        4.33378692      12.44604065      14.85010384
O        2.11187466       3.11410390      17.38797122
O        9.23641004      12.74469213      17.64436674
O        1.33030269      10.48420221      16.09541873
O        2.62498022       0.18357608      17.30950672
O        2.84770608       5.47525641      16.02822643
O        5.78666720       4.04845943      16.06436875
O        7.43233478       7.58740456      16.70901996
O        4.84864034       2.26118614      17.72281680
O       13.64574430       2.69573821      15.96425465
O       10.72641988       5.59398977      16.06358456
O       13.70132517       8.17304372      16.05800014
O        6.56351615       0.31179384      17.53668509
O        8.01842811      10.68111103      16.02621141
