13
algorithm=ase_bh size=13 seed=0 index=0 energy=-39.20814025766405 step=1
Ar 0.4461554504278056 0.7374806583526449 0.476933762313299
Ar -0.2215047559447291 -0.1668156700426449 0.4200509863133111
Ar -0.09055548159378612 1.537383535807539 1.004323249403275
Ar -0.6737772405821101 0.8332927919181108 0.3647324637696545
Ar 0.01862279834930767 1.547225491224416 -0.1292340496008166
Ar -0.2422780878713466 -0.643679371410857 1.421610272742357
Ar 0.7297214217897765 0.9447199659190786 1.521952890098779
Ar 0.6846373814400878 -0.1113726562126668 1.118889437680417
Ar -0.8664229063741044 1.146830122758713 -0.6843445780547881
Ar 0.7967942634054822 -0.1904769632696068 -0.005746176610473707
Ar -0.0131043753730887 0.4592084767664499 -0.4762769353006384
Ar 0.4131963331109685 -1.057036650582487 0.6007897319560632
Ar -0.2514272662783511 0.4718323389481588 1.324236783304025
13
algorithm=ase_bh size=13 seed=0 index=1 energy=-39.20814024060676 step=2
Ar 0.4443621574056796 0.7393812779765991 0.4750707847071487
Ar -0.2190291713922098 -0.168260242497989 0.4216844397793489
Ar -0.09413628474188648 1.537081241745273 1.003958562916883
Ar -0.6764908179135987 0.8295190659488023 0.3673760986549669
Ar 0.01027327264527766 1.546432967696024 -0.1300541120402118
Ar -0.2333950132050408 -0.6443240016501943 1.423731591068358
Ar 0.7311804594869377 0.9489239070944893 1.518737072798305
Ar 0.6896479290783774 -0.1077284271303468 1.116785190388818
Ar -0.8749961660522321 1.14100947736259 -0.6812045149862003
Ar 0.7976496212288547 -0.1872695828319794 -0.008205839653584457
Ar -0.0173396101700434 0.4579722669611439 -0.4760224611253429
Ar 0.4207624023771259 -1.055182605743981 0.6006135867110829
Ar -0.2484312442413294 0.4710367252464293 1.325447438794897
13
algorithm=ase_bh size=13 seed=0 index=2 energy=-39.20814029862051 step=3
Ar 0.4508456106279176 0.7334145712077766 0.4877540685865479
Ar -0.2336587863560563 -0.1549814636550763 0.3930986859144893
Ar -0.06387340290116805 1.513157532765713 1.064912642791758
Ar -0.6686670707926591 0.854251957092973 0.3978057917390272
Ar 0.02930193635984261 1.581524079889879 -0.06805745111061948
Ar -0.2487260849902398 -0.684131712194896 1.368147026075089
Ar 0.7529314530879057 0.8797690956114169 1.537867133508463
Ar 0.6831853706606141 -0.1524191598232134 1.080081486703525
Ar -0.8705981038825056 1.22646093407338 -0.6301131766251953
Ar 0.7778975223215367 -0.1733707628914203 -0.04873723634143864
Ar -0.02681745744025917 0.5142660753683762 -0.4718090803663925
Ar 0.3874848343069429 -1.064323642383645 0.5167104874822853
Ar -0.2392482864959606 0.4349745651155943 1.330257459656932
13
algorithm=ase_bh size=13 seed=0 index=3 energy=-39.20814027625018 step=4
Ar 0.4623542602656764 0.7210348235041529 0.5120518360495427
Ar -0.2500329456848241 -0.1365862417680344 0.3580100144343386
Ar -0.03875278200375336 1.489471218722659 1.115735015723704
Ar -0.6498121916786344 0.886133463112851 0.4032976607426517
Ar 0.08394805138548084 1.609920360730878 -0.01004990046815273
Ar -0.3068497833272614 -0.7120103849316888 1.304900239810258
Ar 0.7440069176292794 0.8048243315019199 1.574629705327831
Ar 0.6495720164890424 -0.2005071217658399 1.064539351277686
Ar -0.8139435648150642 1.315334290382803 -0.6090318630926373
Ar 0.7706081371551428 -0.1694713122897992 -0.06153259722792861
Ar 0.0005707416582997018 0.5664302391742702 -0.4676469660478983
Ar 0.3361019339744873 -1.072533085954285 0.4499754302648115
Ar -0.2577132565419606 0.4065514897569726 1.323039911220258
13
algorithm=ase_bh size=13 seed=0 index=4 energy=-39.20814023449134 step=5
Ar 0.4358101074761064 0.7551121040782621 0.5356336520617809
Ar -0.1835727142913658 -0.1670393182246836 0.3546754597568924
Ar -0.1818760797540232 1.495102836300864 1.061855293282828
Ar -0.6720201638343923 0.81695386833769 0.3236967454998935
Ar 0.03129474001132122 1.589351513994312 -0.05288583786620452
Ar -0.2763218304025281 -0.7141766639382602 1.315385756931653
Ar 0.6120102754446043 0.8980933053644273 1.614476890792201
Ar 0.6505719002470037 -0.1277117355791746 1.139015156893368
Ar -0.7801025323068514 1.196599631223519 -0.7156062304714367
Ar 0.8698989575998256 -0.1226179934292762 0.02750121081112025
Ar 0.07953892471231516 0.5282724421916526 -0.4735950558817878
Ar 0.4698590953630629 -1.043664758868723 0.5350518387710913
Ar -0.3250331457591684 0.404316838726254 1.292712957433066
13
algorithm=ase_bh size=13 seed=0 index=5 energy=-39.22132553953003 step=6
Ar 0.4025294248610701 0.9442406870043704 1.042858848922089
Ar -0.2208805599397075 0.1987272308119744 0.4950770627212628
Ar -0.6262969452341927 1.188930950340106 0.6903135776222213
Ar 0.236117913036848 1.05835023442106 -0.04558862748113086
Ar -0.5860148264175927 1.776274494078075 -0.2568998447405865
Ar -0.4902805773125822 -0.6465426377570536 1.138310037625576
Ar 1.397646408864857 0.4967675203710438 1.262652339603518
Ar 0.4852045942750663 -0.142894710268205 1.285182196513708
Ar -0.7696009935913908 0.6748096025113378 -0.3236740286554684
Ar 0.880373988237826 0.2325934904381794 0.3129199291968137
Ar 0.1553583526885184 0.03345512649772164 -0.5140660195106472
Ar 0.3215997224584248 -0.7328329192917986 0.3354375053887029
Ar -0.4556989674212336 0.426713001020049 1.53539486080841
