13
algorithm=ase_ga size=13 seed=0 index=0 energy=-27.69887849125516 step=1
Ar 2.140539145162164 1.338006194427485 -0.6448105235070195
Ar -1.447849247575038 0.7328204355662197 1.999541833592352
Ar 2.815035598246178 1.29798912719166 0.2489103948944152
Ar 2.534562776250878 2.285364639508476 -0.1908251851282734
Ar 1.942789706264971 0.5989826421124365 0.1727735943043236
Ar 1.758235271361897 1.690141030252448 0.34769363520829
Ar -1.668961817053575 -0.6560005491944846 0.8385286907221506
Ar -0.9860878735268268 -0.2047535701287031 1.601258697445793
Ar -1.583281811521244 0.4561970853548814 0.9243553091045154
Ar 2.208344881275968 1.066711088803857 1.157433933392275
Ar -1.58983775365123 -1.11074820743611 1.857271864024803
Ar -2.101374163803982 -0.1291337780784207 1.734490559163646
Ar -2.579754683279636 -0.01514839717344908 0.7352569982443837
13
algorithm=ase_ga size=13 seed=0 index=1 energy=-29.07106002698915 step=2
Ar 0.04550182317016046 0.5398928148933684 -1.950526617940259
Ar -0.7043755064560633 -1.073341128645337 -0.4850863809384198
Ar -0.6516593096426064 -0.1229886789672459 0.09850450529957767
Ar -0.3484155299153029 -1.127484378671194 0.5663696167191016
Ar -0.7561423780144648 1.283197921627645 -1.703487025451925
Ar 0.2928788372686967 -0.6302471614578699 -0.2077453033311506
Ar -1.419283234343935 -0.8871153821341072 0.3604532016289529
Ar 0.191439941046125 -0.1920829877197485 0.8263024796988157
Ar 1.034784590681631 0.9477300469467077 -1.617604651120141
Ar -1.131090555686983 -1.418311520315958 1.302947521741806
Ar -0.8657141969895946 -0.3393340297459916 1.170544391338493
Ar 0.1134477564985124 1.14476911774509 -1.009585684955944
Ar 0.2552362367987759 1.64408993644885 -2.013948726199156
13
algorithm=ase_ga size=13 seed=0 index=2 energy=-28.38339481899671 step=3
Ar -0.9097088393392848 1.142520899484873 -1.803509401492719
Ar -1.592958379956921 1.464423195339148 -0.03024564935142752
Ar -1.112563451875943 0.493593741841739 0.2511223757600733
Ar -1.254369236378162 0.7511049268145851 -0.8193589438801591
Ar 1.101408888808496 -2.708509301374429 -0.5820611443481828
Ar -1.008813330767129 1.379063669397072 0.9186141122774121
Ar 1.929185265064646 -2.568137380013505 -1.327046408967928
Ar -1.892227899849366 -0.2219534786556908 0.5772329028406469
Ar -2.155275220775649 0.5214039749192878 -0.2121227645309211
Ar -2.514284016841608 -0.5297187406809497 -0.2970463133419146
Ar -1.434281951782953 -0.290666476702911 -0.4628414430763313
Ar -1.712898019850654 -1.211436452427194 0.09486944808146125
Ar -1.995106123959952 0.8593881583858477 0.8328095464805351
13
algorithm=ase_ga size=13 seed=0 index=3 energy=-31.33912182667915 step=4
Ar -0.5216004052695566 0.2730234635983895 -0.9156377368793207
Ar 0.5256830181324502 1.345543041702567 1.693076081785115
Ar -0.866823974657859 -0.745486459095235 -1.273617003180728
Ar -0.1413331555899112 -1.510624673360925 -0.8539548928804112
Ar 0.6190104253097932 -0.9481353161229898 -0.2299055495485989
Ar -0.1622711938566558 -1.565628763422582 0.2616350470977476
Ar -0.4504471972541831 -0.6222257191129604 -0.2628042599742853
Ar 0.2136655243457787 -0.516430894127064 -1.170097095380086
Ar 0.5130392385932422 0.5450295245712384 -1.262164012234687
Ar -0.2650240692688886 -0.5964354276290367 0.8215458508638978
Ar 1.59483488167622 1.015307972075277 1.778904327344387
Ar 1.22806853804709 -0.2216067292528409 -0.8441683844107359
Ar 0.3569543994335035 0.1276181594380313 -0.2335194684579959
13
algorithm=ase_ga size=13 seed=0 index=4 energy=-37.81124126297954 step=5
Ar 0.3172067119662165 0.2889440736505006 1.115089751209358
Ar 0.3460207285617635 -0.8474990449604323 -0.7076190021266877
Ar 0.6108598054094501 -0.4449221627497401 0.3086011373343798
Ar -0.04453159052178387 -1.341240266623985 0.2099976786767786
Ar -0.415973356601158 -0.4562485498416592 0.7727475899899439
Ar 0.9617595528861963 0.6582370472443236 0.3041548117480292
Ar 0.9248032112437645 0.07599994339513869 -0.6178043965663647
Ar -0.08451933030205143 0.3531404162119583 0.06174982583945694
Ar -0.1049135338804871 0.1300033942627782 -1.015598234936391
Ar -0.2614327243304776 1.128718407522993 -1.473321134123697
Ar -0.6319187187548226 -0.5384762239605388 -0.3043344077034051
Ar 0.7289586648175606 0.6042719080856406 -1.578063417950693
Ar 0.4279119813813378 1.063583840269225 -0.6027379674366192
13
algorithm=ase_ga size=13 seed=0 index=5 energy=-35.19733977123188 step=6
Ar 0.384105400531207 -0.8733698889009435 -0.6444583767592684
Ar 1.187687190649605 0.2571621820082798 0.5721578954597673
Ar 1.074750178160458 -0.01457840688951278 -0.5002592193078707
Ar 0.01711044792568558 0.1574676311000577 -0.8259396828538563
Ar -0.1902441182778838 1.249330242750409 -0.8608150018330949
Ar 0.8238514986906146 0.855142167614243 -1.153858949479423
Ar 0.4996092051226911 0.8491261033462285 -0.09100181575122124
Ar 0.2045832286346397 0.6421379783435388 0.9612227500766468
Ar -0.4571234597433291 -1.603976178756023 -0.6602473131403558
Ar -0.03916333541947906 -1.250288498405719 0.3189029123993251
Ar -0.6575845967845579 -0.561157599845877 -0.3186328347651485
Ar 0.2327341656837916 -0.18086530458762 0.2176385822914758
Ar 1.04423435934525 1.353121498294941 0.7327038665070545
