13
algorithm=ssw size=13 seed=0 index=0 energy=-40.24277387226225 entry_id=0 visits=2
Ar 0.2837702479374758 0.7910485716600286 0.4354293396323209
Ar 0.02947776092506655 -0.2854625423196557 0.3281356249923748
Ar -0.4111658405742696 1.312817373307004 1.093085515774157
Ar -0.7855055780354386 0.4648051838683887 0.4580637202180435
Ar -0.4699895461058292 1.413244362294206 -0.04833536138943918
Ar -0.8240752505526546 -0.5298894027642008 0.9869736521622438
Ar 0.6538895350690008 1.033064854445939 1.436933457689025
Ar 0.911812149178141 0.04108424933303263 0.9213342509601887
Ar -0.2056004589937673 0.4115037143348182 -0.4939969423860892
Ar 0.8762880823660903 0.1680866771246143 -0.2314266855212784
Ar 0.5487669334948537 1.222418070624654 -0.5361321177781615
Ar 0.2413825627226444 -0.7895108357491671 1.289305351840711
Ar -0.1189930629255695 0.255381794017317 1.318548031820298
13
algorithm=ssw size=13 seed=0 index=1 energy=-43.89940496322741 entry_id=1 visits=3
Ar -0.4261493197646436 1.353353353930463 0.8064591572084471
Ar 0.05615847600721652 0.4237381243574751 0.5352237692954187
Ar -0.6762880842710277 0.8099084645846953 -0.1610283891506938
Ar -0.5547795440303004 -0.3063084450931903 0.02125875777508477
Ar 0.3418618805035832 1.300199135082313 -0.03095770762280915
Ar 0.5384662358807331 -0.5058776763548289 0.2639906816768684
Ar -0.9803049576558142 0.3604766967828084 0.8387301614299387
Ar -0.1500479946306954 0.5730041029065416 1.586686575540611
Ar 0.2623637699755775 0.2744715489686034 -0.5162380561068826
Ar 0.6670970807616806 1.153784340450955 1.049189964479588
Ar 1.092621325827263 0.4869985540980029 0.2317183469582691
Ar 0.7886043134967504 0.03756751221172563 1.231478044560911
Ar -0.2295456475946801 -0.4527236417485605 1.101406531969523
13
algorithm=ssw size=13 seed=0 index=2 energy=-40.00593299639984 entry_id=2 visits=1
Ar 0.2388882157023252 1.323314626369057 0.2156776384906121
Ar 0.3549763617860682 0.2767177943600652 0.5840233223905584
Ar 0.03244547250010489 0.4382695511270624 -0.4469004139961226
Ar -1.07007293190502 0.1673315837736949 -0.4711911054898711
Ar 1.107866959138361 0.6873728781110749 -0.08270577570228045
Ar -1.379485132158645 -0.1076297577214172 0.5952579306496987
Ar -0.6520897970504159 0.6971465340051395 0.4002298576716617
Ar -0.06594825053658719 1.052435936756468 1.266367905551581
Ar -0.3914419612099165 -0.4023293954183054 0.1923846701280484
Ar 1.010145623809903 1.080198071777652 0.98124116540825
Ar 1.397935169937649 0.05290610363504059 0.8289183691660368
Ar 0.6080980989569885 0.2432944601289583 1.639872910721724
Ar -0.4612602944651191 -0.0004363167275059815 1.254741363024419
13
algorithm=ssw size=13 seed=0 index=3 energy=-43.89940494880288 entry_id=3 visits=2
Ar -0.02846552961119482 1.493043418059463 0.6759460255522062
Ar 0.05615809506496478 0.4237375577743621 0.5352234238698254
Ar -0.7630247154524639 -0.06319585895562031 0.02315764431765689
Ar 0.2502975721693054 0.08226600624172375 -0.4727885616387155
Ar 0.7042770003870427 1.04406813683672 -0.06934885595390231
Ar 0.1407810248923642 -0.6455666399363812 0.3945056951243673
Ar -0.9353087075051757 0.8087181820661744 0.7331109156110264
Ar -0.1379823457302275 0.7652102556127092 1.543238935903625
Ar -0.4147657240881827 0.9810636799588045 -0.2635218742025271
Ar 0.8753397910541885 0.9106687289856354 1.047290691049594
Ar 1.047625806620508 0.03875824558148133 0.3373403818633426
Ar 0.5270840792878677 -0.1335863849112452 1.333965728616254
Ar -0.5919588125833051 -0.1965932571368376 1.139797687901551
13
algorithm=ssw size=13 seed=0 index=4 energy=-43.89940495360697 entry_id=4 visits=2
Ar -0.3043902030631833 1.440840586241475 0.4585320958161009
Ar 0.2070125303102178 -0.1075314513684074 -0.3950307706846886
Ar -0.6534066473961337 -0.3597628811791671 0.3049635658787773
Ar 0.7657277335017602 1.207232718150181 0.7654773373949539
Ar 0.4227196445936224 1.005298746552744 -0.3001154671290612
Ar -0.3104018606683685 -0.1578222279928811 1.370569315821238
Ar -0.9694738685894322 0.5971824300735329 0.8325016493985704
Ar 0.05615754319914146 0.4237368817319785 0.5352263216211407
Ar -0.6496915953980346 0.6282712154963624 -0.258697113420673
Ar 1.081787476551095 0.2502894442343376 0.2379550047455788
Ar 0.4167052991149755 -0.5933635567705329 0.611910847863484
Ar 0.7620086217554918 0.219207909044363 1.329152667546594
Ar -0.09469713940548297 0.9550122559630239 1.465472383162318
13
algorithm=ssw size=13 seed=0 index=5 energy=-43.8994049500858 entry_id=5 visits=1
Ar -0.1122383947664401 1.383118083490315 1.005971774603697
Ar 0.2245569037897587 -0.5356428394989203 0.06447757187058845
Ar -0.7912068189623391 -0.02454846148029169 0.03384534595989671
Ar 0.5033126705089817 1.283631680988503 0.05458633878705264
Ar 0.08369428620343058 0.4136417448848653 -0.5462126976189507
Ar -0.3910009381730138 -0.4361525540714394 1.015857837424645
Ar -0.9123005007861092 0.5746175788759404 0.9931495492983667
Ar 0.05615760100729079 0.4237390419860217 0.5352237333574102
Ar -0.6189262358802775 1.099819810302094 0.02774163274653934
Ar 1.024614305210808 0.2728549289805663 0.07729881771198659
Ar 0.7312373748750767 -0.2523442433182647 1.042712224525445
Ar 0.9035291262166999 0.8720250043149906 1.036598366947596
Ar 0.02862815526179876 0.4338322947226093 1.616667342400063
