115
Lattice="13.75323 0.0 0.0 0.0 13.75323 0.0 0.0 0.0 23.89" Properties=species:S:1:pos:R:3 entry_id=4 rank=13 energy=-572.148193359375 parent_id=3 pbc="T T F"
Pd       0.00000000       0.00000000      10.00000000
Pd       2.75064538       0.00000000      10.00000000
Pd       5.50129076       0.00000000      10.00000000
Pd       8.25193614       0.00000000      10.00000000
Pd      11.00258152       0.00000000      10.00000000
Pd       0.00000000       2.75064538      10.00000000
Pd       2.75064538       2.75064538      10.00000000
Pd       5.50129076       2.75064538      10.00000000
Pd       8.25193614       2.75064538      10.00000000
Pd      11.00258152       2.75064538      10.00000000
Pd       0.00000000       5.50129076      10.00000000
Pd       2.75064538       5.50129076      10.00000000
Pd       5.50129076       5.50129076      10.00000000
Pd       8.25193614       5.50129076      10.00000000
Pd      11.00258152       5.50129076      10.00000000
Pd       0.00000000       8.25193614      10.00000000
Pd       2.75064538       8.25193614      10.00000000
Pd       5.50129076       8.25193614      10.00000000
Pd       8.25193614       8.25193614      10.00000000
Pd      11.00258152       8.25193614      10.00000000
Pd       0.00000000      11.00258152      10.00000000
Pd       2.75064538      11.00258152      10.00000000
Pd       5.50129076      11.00258152      10.00000000
Pd       8.25193614      11.00258152      10.00000000
Pd      11.00258152      11.00258152      10.00000000
Pd       1.34797491       1.38482848      12.07129063
Pd       4.08907973       1.40242648      12.01916422
Pd       6.83942498       1.36568046      12.01264922
Pd       9.57512057       1.39592898      11.89594876
Pd      12.38684272       1.37174114      11.92044161
Pd       1.38639198       4.11339227      11.98717582
Pd       4.09139861       4.12342135      12.03567944
Pd       6.82167477       4.10209081      11.99513925
Pd       9.56728621       4.13975942      11.94281254
Pd      12.36578195       4.13265160      11.93417299
Pd       1.37110082       6.89256210      11.94010419
Pd       4.13935064       6.87026939      11.96482277
Pd       6.87097415       6.85831372      11.95140951
Pd       9.64205429       6.82915781      11.94515418
Pd      12.39111484       6.85622887      11.94896407
Pd       1.36982664       9.68168100      11.99156594
Pd       4.11777592       9.66324146      11.95099537
Pd       6.89476706       9.64088005      11.95142944
Pd       9.64982872       9.59779534      11.89439304
Pd      12.42487279       9.60955999      11.94161946
Pd       1.36278715      12.43085588      12.01218131
Pd       4.10435739      12.42184499      11.98390093
Pd       6.86816975      12.39901143      11.97280504
Pd       9.63028672      12.36702810      11.91406436
Pd      12.41544264      12.34329408      11.97712295
Pd      13.74910138       0.06120067      14.15895668
Pd       2.78514188       0.08459685      14.11697951
Pd       5.54417345      13.71886223      14.01192890
Pd       8.33929098      13.72981881      14.00589848
Pd      11.03181143       0.07805823      13.77287693
Pd      13.61057999       2.76615166      13.97392439
Pd       2.62308227       2.81286411      14.14169476
Pd       5.43529009       2.66836834      14.06477566
Pd       8.23048651       2.69761999      13.99014739
Pd      10.89990364       2.72217581      13.92933108
Pd       0.02708823       5.52217177      13.91270038
Pd       2.71910476       5.58624880      14.02504991
Pd       5.42030565       5.45281759      14.07158040
Pd       8.29372697       5.46754199      13.97723125
Pd      11.01309060       5.42770983      13.94091485
Pd       0.08418957       8.27801363      13.95332510
Pd       2.85064132       8.31230512      13.92982183
Pd       5.59860956       8.25988767      13.97267632
Pd       8.30473932       8.25429861      13.96258736
Pd      11.04380401       8.24357986      13.88861714
Pd      13.60406101      11.01313866      14.16371324
Pd       2.78536929      11.10295499      13.95139930
Pd       5.48818870      10.96065669      13.89341451
Pd       8.17482858      10.99048747      13.98787969
Pd      10.89867860      11.01447871      13.88752733
Pd      12.55612358       6.73253055      16.08281699
Pd       9.06511528       9.62235601      16.45137616
Pd       1.81166862      12.48915115      16.50872816
Pd       1.69985742       7.29872138      16.27575651
Pd      12.16645214       9.51993094      16.04544963
Pd       9.26723951       1.48145813      16.44107995
Pd       3.95677395       1.25233223      16.67308555
Pd       5.97485239       9.94028289      16.43842600
Pd       4.39659669      12.17495231      15.97903340
Pd      11.18079946      12.80181047      16.17499416
Pd       0.98960215       4.75568269      16.36713682
Pd       3.96563640       4.39043731      16.32616788
Pd      11.29199436       3.47315419      16.58156130
Pd       2.99607175       9.73878776      16.32775448
Pd       7.13725339       7.03935667      16.30485728
Pd       7.11810992      13.20614573      16.46064010
Pd       9.77630627       7.07362385      15.94937320
Pd       7.37306807       3.36624432      16.46069294
Pd       0.46700996       1.95561262      16.87288688
Pd       4.38482935       7.06016577      16.01992091
O        9.31570100       3.31393734      17.10984234
O       10.65143434      10.75980637      15.95737368
O       13.11569214      12.58284017      15.67512781
O       12.08384119       1.78509260      17.46410547
O       11.14966431       0.74828805      17.42407290
O        4.50794290       8.78818302      17.10097225
O        2.44640511       2.48420278      16.20281876
O        1.35558984       0.79994864      18.19903330
O        9.11229215      13.32219575      15.97871845
O        1.47722681      10.80203148      15.57090195
O        2.49396162       0.15126734      17.70739333
O        2.62145391       5.68548252      17.05928032
O        6.95200670       5.24215300      15.53604658
O        7.47978090       8.72116732      17.21660705
O        5.36774122       2.91136536      16.10868252
O       13.26943985       3.45474846      15.91756987
O       11.08550255       5.40421340      16.03040778
O       13.73888995       8.32326102      16.08924709
O        5.29041042      13.57535821      17.13127421
O        7.53896531      11.12513559      16.00245428
