115
Lattice="13.75323 0.0 0.0 0.0 13.75323 0.0 0.0 0.0 23.89" Properties=species:S:1:pos:R:3 entry_id=20 rank=8 energy=-572.4367065429688 parent_id=19 pbc="T T F"
Pd       0.00000000       0.00000000      10.00000000
Pd       2.75064538       0.00000000      10.00000000
Pd       5.50129076       0.00000000      10.00000000
Pd       8.25193614       0.00000000      10.00000000
Pd      11.00258152       0.00000000      10.00000000
Pd       0.00000000       2.75064538      10.00000000
Pd       2.75064538       2.75064538      10.00000000
Pd       5.50129076       2.75064538      10.00000000
Pd       8.25193614       2.75064538      10.00000000
Pd      11.00258152       2.75064538      10.00000000
Pd       0.00000000       5.50129076      10.00000000
Pd       2.75064538       5.50129076      10.00000000
Pd       5.50129076       5.50129076      10.00000000
Pd       8.25193614       5.50129076      10.00000000
Pd      11.00258152       5.50129076      10.00000000
Pd       0.00000000       8.25193614      10.00000000
Pd       2.75064538       8.25193614      10.00000000
Pd       5.50129076       8.25193614      10.00000000
Pd       8.25193614       8.25193614      10.00000000
Pd      11.00258152       8.25193614      10.00000000
Pd       0.00000000      11.00258152      10.00000000
Pd       2.75064538      11.00258152      10.00000000
Pd       5.50129076      11.00258152      10.00000000
Pd       8.25193614      11.00258152      10.00000000
Pd      11.00258152      11.00258152      10.00000000
Pd       1.34166144       1.39319074      11.99247892
Pd       4.07597380       1.37217164      11.94129879
Pd       6.85297981       1.38348327      11.97355108
Pd       9.57512057       1.39592898      11.89594876
Pd      12.38684272       1.37174114      11.92044161
Pd       1.35118771       4.15305559      11.97946233
Pd       4.09413459       4.13337738      11.98735502
Pd       6.84691458       4.10008390      11.99874509
Pd       9.56728621       4.13975942      11.94281254
Pd      12.36578195       4.13265160      11.93417299
Pd       1.37110082       6.89256210      11.94010419
Pd       4.13935064       6.87026939      11.96482277
Pd       6.87097415       6.85831372      11.95140951
Pd       9.64205429       6.82915781      11.94515418
Pd      12.39111484       6.85622887      11.94896407
Pd       1.37837726       9.65634363      11.96647032
Pd       4.11777592       9.66324146      11.95099537
Pd       6.89476706       9.64088005      11.95142944
Pd       9.64982872       9.59779534      11.89439304
Pd      12.42487279       9.60955999      11.94161946
Pd       1.35247662      12.41324736      11.97889485
Pd       4.09664222      12.39333290      11.95646852
Pd       6.86816975      12.39901143      11.97280504
Pd       9.63028672      12.36702810      11.91406436
Pd      12.39087774      12.35542108      11.99899555
Pd       0.03025265       0.04500585      14.01898742
Pd       2.77866905       0.05091892      14.03010506
Pd       5.49331672      13.72706529      13.94061249
Pd       8.31681533       0.02805144      13.85789575
Pd      11.02228813       0.04015141      13.90170594
Pd      13.58888707       2.81245012      13.98775839
Pd       2.64064988       2.80208603      13.96846170
Pd       5.35021459       2.64650046      13.92557033
Pd       8.06517049       2.72143491      14.20810370
Pd      10.83797859       2.72831802      13.96609632
Pd       0.06080022       5.52495069      14.07749699
Pd       2.76690217       5.62341184      13.96035760
Pd       5.44390014       5.42926178      14.03421026
Pd       8.27846364       5.52702381      13.92379984
Pd      11.04907882       5.43999805      13.92146140
Pd       0.04580611       8.24217196      13.93744535
Pd       2.85751134       8.31104206      13.91185730
Pd       5.57430712       8.21116989      14.03775332
Pd       8.32818810       8.31863439      13.96880137
Pd      11.07667710       8.26154513      13.98300175
Pd      13.68374185      10.98186919      14.06994750
Pd       2.75158139      11.08067786      13.93796727
Pd       5.46923265      10.94320277      13.85749595
Pd       8.13700223      11.06572271      14.13914892
Pd      10.88620916      10.99475427      13.91514075
Pd      12.65225467       6.94071029      16.26966707
Pd       9.27005415       9.74887237      16.33158125
Pd       1.85368693      12.54541537      16.63426388
Pd       1.61099003       7.22102919      15.99560722
Pd      12.47452589       9.60195803      16.19939442
Pd       9.48090050       1.69859711      16.46498195
Pd       3.90595978       1.25226830      16.42247551
Pd       5.97325338      10.09121639      16.39513450
Pd       4.31991291      12.15242677      15.91604573
Pd      12.22565514      12.43898035      16.05424332
Pd       2.13966092       4.54379930      16.32034103
Pd       5.58325013       3.40991666      16.40602817
Pd      11.80644722       3.71427643      16.62692858
Pd       2.97214406       9.71126723      16.26343962
Pd       7.14569192       7.25284003      16.28796863
Pd       7.03786463      13.62715410      16.28767628
Pd       9.74668342       6.95378507      15.96663262
Pd       8.48394448       4.47142322      16.44128367
Pd       0.42613260       1.86400737      16.45729841
Pd       4.35703186       6.83204357      16.34191379
O        9.93917033       3.44626246      17.26227897
O       10.93776406      10.86791155      15.98490688
O        0.10042709      13.57801279      16.10034879
O       12.26955044       1.85142600      17.31173233
O       11.33952516       0.86916863      16.90377861
O        4.54477126       8.75352989      16.89462327
O        2.39692478       2.45843265      15.97640688
O        1.40231255       1.12671036      18.19361824
O        8.95167404      13.71051890      15.78435949
O        1.45197200      10.87771470      15.63684495
O        2.42387033       0.32204399      17.81557216
O        4.11786944       4.84072398      16.58555583
O        6.92205399       5.40401270      15.63800188
O        7.60172720       8.97752057      17.05280636
O        7.11283857       2.04074259      16.14428919
O        0.09649862       3.89710624      16.01675946
O       11.32722623       5.53769074      15.98521102
O        0.11722841       8.34436143      16.85249152
O        5.19023246      13.62104820      16.99727427
O        7.30076916      11.55767796      16.03843425
