115
Lattice="13.75323 0.0 0.0 0.0 13.75323 0.0 0.0 0.0 23.89" Properties=species:S:1:pos:R:3 entry_id=8 rank=4 energy=-572.518310546875 parent_id=5 pbc="T T F"
Pd       0.00000000       0.00000000      10.00000000
Pd       2.75064538       0.00000000      10.00000000
Pd       5.50129076       0.00000000      10.00000000
Pd       8.25193614       0.00000000      10.00000000
Pd      11.00258152       0.00000000      10.00000000
Pd       0.00000000       2.75064538      10.00000000
Pd       2.75064538       2.75064538      10.00000000
Pd       5.50129076       2.75064538      10.00000000
Pd       8.25193614       2.75064538      10.00000000
Pd      11.00258152       2.75064538      10.00000000
Pd       0.00000000       5.50129076      10.00000000
Pd       2.75064538       5.50129076      10.00000000
Pd       5.50129076       5.50129076      10.00000000
Pd       8.25193614       5.50129076      10.00000000
Pd      11.00258152       5.50129076      10.00000000
Pd       0.00000000       8.25193614      10.00000000
Pd       2.75064538       8.25193614      10.00000000
Pd       5.50129076       8.25193614      10.00000000
Pd       8.25193614       8.25193614      10.00000000
Pd      11.00258152       8.25193614      10.00000000
Pd       0.00000000      11.00258152      10.00000000
Pd       2.75064538      11.00258152      10.00000000
Pd       5.50129076      11.00258152      10.00000000
Pd       8.25193614      11.00258152      10.00000000
Pd      11.00258152      11.00258152      10.00000000
Pd       1.36399092       1.40170940      12.03766347
Pd       4.09022031       1.40836268      12.01263161
Pd       6.82590079       1.38481499      11.98886942
Pd       9.57512057       1.39592898      11.89594876
Pd      12.38684272       1.37174114      11.92044161
Pd       1.38456418       4.11971539      11.99069565
Pd       4.09379316       4.12680744      12.03761916
Pd       6.82308397       4.11830874      11.99648340
Pd       9.56728621       4.13975942      11.94281254
Pd      12.36578195       4.13265160      11.93417299
Pd       1.37110082       6.89256210      11.94010419
Pd       4.13935064       6.87026939      11.96482277
Pd       6.87097415       6.85831372      11.95140951
Pd       9.64205429       6.82915781      11.94515418
Pd      12.39111484       6.85622887      11.94896407
Pd       1.37989869       9.66176750      11.97451322
Pd       4.11777592       9.66324146      11.95099537
Pd       6.89476706       9.64088005      11.95142944
Pd       9.64982872       9.59779534      11.89439304
Pd      12.42487279       9.60955999      11.94161946
Pd       1.36023822      12.42357977      11.98647637
Pd       4.10414454      12.41761020      11.97100449
Pd       6.86816975      12.39901143      11.97280504
Pd       9.63028672      12.36702810      11.91406436
Pd      12.39474358      12.35748121      11.99403112
Pd       0.03591982       0.04804807      14.05101996
Pd       2.79557173       0.07657176      14.08730083
Pd       5.50404404      13.73162379      14.00142636
Pd       8.26719386       0.02371030      13.89308914
Pd      11.00371011       0.03261758      13.88966859
Pd      13.62465836       2.78125056      13.98711054
Pd       2.62530770       2.79752351      14.14499317
Pd       5.44255741       2.67945556      14.06061057
Pd       8.23999481       2.73779489      13.97054198
Pd      10.91667112       2.70365052      13.91395296
Pd       0.02635615       5.52808562      13.92341051
Pd       2.72173298       5.57859810      14.01882592
Pd       5.43301510       5.46283705      14.08560958
Pd       8.30105041       5.49770045      13.99168326
Pd      11.01618075       5.42370426      13.96055530
Pd       0.07523486       8.26979145      13.96175449
Pd       2.84414870       8.30566002      13.92985636
Pd       5.59818013       8.26664782      13.97864259
Pd       8.31392509       8.28465402      13.96387422
Pd      11.04935020       8.25451589      13.90842044
Pd      13.65197345      11.00640684      14.07079234
Pd       2.78322337      11.09853026      13.94297141
Pd       5.48439733      10.97141042      13.89297250
Pd       8.17466955      11.01529531      13.98673420
Pd      10.89440552      11.01127134      13.92207368
Pd      12.51018999       6.75945756      16.08221708
Pd       9.14966622       9.73820914      16.42200851
Pd       1.84889276      12.52258227      16.52698626
Pd       1.63447103       7.32668716      16.26216477
Pd      12.14355414       9.65800214      16.06802053
Pd       9.30856378       1.39681324      16.34642233
Pd       3.96931844       1.28407829      16.69012180
Pd       5.99830573       9.95090895      16.43029150
Pd       4.41608971      12.16433552      16.00402461
Pd      12.14250572      12.50289313      16.10895537
Pd       0.95366865       4.76419728      16.38375316
Pd       3.95258308       4.39973503      16.30907066
Pd      11.27189642       3.42796321      16.58936461
Pd       2.97221078       9.76838162      16.31245191
Pd       7.15153230       7.06359309      16.27361506
Pd       7.05644451      13.29520467      16.38957788
Pd       9.78126714       7.10858454      15.96975166
Pd       7.39694279       3.31853220      16.45861310
Pd       0.44944405       2.00625765      16.95437600
Pd       4.35216927       7.07642296      16.01922123
O        9.32532071       3.20275773      17.11509331
O       10.71240644      11.02634988      16.02728292
O        0.05261203      13.53567727      16.07594630
O       12.02979684       1.67799946      17.46282632
O       11.24615827       0.58380509      17.10722584
O        4.50023070       8.82307647      17.06981255
O        2.51560370       2.57063774      16.21927795
O        1.44667276       0.94484853      18.28805947
O        8.91995966      13.35017896      15.75786053
O        1.43938381      10.85285890      15.56551144
O        2.49750870       0.22138931      17.72890805
O        2.60026989       5.71871087      17.01990289
O        6.96482071       5.23681129      15.55595030
O        7.56193902       8.75650082      17.14432577
O        5.37890071       2.92112930      16.10506038
O       13.23768107       3.45136334      15.93806856
O       11.06379652       5.39098562      16.05096097
O       13.66474746       8.37171294      16.08846665
O        5.26485525      13.58753528      17.16729605
O        7.54439452      11.14085394      16.00224014
