115
Lattice="13.75323 0.0 0.0 0.0 13.75323 0.0 0.0 0.0 23.89" Properties=species:S:1:pos:R:3 entry_id=18 rank=9 energy=-572.4356689453125 parent_id=17 pbc="T T F"
Pd       0.00000000       0.00000000      10.00000000
Pd       2.75064538       0.00000000      10.00000000
Pd       5.50129076       0.00000000      10.00000000
Pd       8.25193614       0.00000000      10.00000000
Pd      11.00258152       0.00000000      10.00000000
Pd       0.00000000       2.75064538      10.00000000
Pd       2.75064538       2.75064538      10.00000000
Pd       5.50129076       2.75064538      10.00000000
Pd       8.25193614       2.75064538      10.00000000
Pd      11.00258152       2.75064538      10.00000000
Pd       0.00000000       5.50129076      10.00000000
Pd       2.75064538       5.50129076      10.00000000
Pd       5.50129076       5.50129076      10.00000000
Pd       8.25193614       5.50129076      10.00000000
Pd      11.00258152       5.50129076      10.00000000
Pd       0.00000000       8.25193614      10.00000000
Pd       2.75064538       8.25193614      10.00000000
Pd       5.50129076       8.25193614      10.00000000
Pd       8.25193614       8.25193614      10.00000000
Pd      11.00258152       8.25193614      10.00000000
Pd       0.00000000      11.00258152      10.00000000
Pd       2.75064538      11.00258152      10.00000000
Pd       5.50129076      11.00258152      10.00000000
Pd       8.25193614      11.00258152      10.00000000
Pd      11.00258152      11.00258152      10.00000000
Pd       1.34061847       1.39197930      11.99285605
Pd       4.07684008       1.36890981      11.94131442
Pd       6.85504099       1.38273725      11.97216923
Pd       9.57512057       1.39592898      11.89594876
Pd      12.38684272       1.37174114      11.92044161
Pd       1.35042255       4.15143235      11.97953269
Pd       4.09261042       4.12986587      11.98669599
Pd       6.84748742       4.09934559      11.99895710
Pd       9.56728621       4.13975942      11.94281254
Pd      12.36578195       4.13265160      11.93417299
Pd       1.37110082       6.89256210      11.94010419
Pd       4.13935064       6.87026939      11.96482277
Pd       6.87097415       6.85831372      11.95140951
Pd       9.64205429       6.82915781      11.94515418
Pd      12.39111484       6.85622887      11.94896407
Pd       1.37729048       9.65640692      11.96398995
Pd       4.11777592       9.66324146      11.95099537
Pd       6.89476706       9.64088005      11.95142944
Pd       9.64982872       9.59779534      11.89439304
Pd      12.42487279       9.60955999      11.94161946
Pd       1.35230043      12.41301055      11.98045250
Pd       4.09626917      12.39219899      11.95772393
Pd       6.86816975      12.39901143      11.97280504
Pd       9.63028672      12.36702810      11.91406436
Pd      12.38960932      12.35399540      12.00100297
Pd       0.02952948       0.04078307      14.02114624
Pd       2.77700005       0.04612667      14.03029031
Pd       5.49240478      13.72487029      13.94359691
Pd       8.31551926       0.02643088      13.85821682
Pd      11.02306275       0.03968146      13.90387539
Pd      13.58544360       2.81267274      13.98898561
Pd       2.63974063       2.79592071      13.96864121
Pd       5.35076719       2.64265436      13.92464467
Pd       8.06162807       2.71934264      14.20772753
Pd      10.83433938       2.72836075      13.96795503
Pd       0.06362499       5.52088872      14.07893729
Pd       2.76696447       5.61782373      13.95940563
Pd       5.44180790       5.42079669      14.03181692
Pd       8.28406033       5.52916978      13.92163290
Pd      11.05316665       5.44198731      13.92201642
Pd       0.04253079       8.23785994      13.93940254
Pd       2.85349030       8.30732844      13.90890228
Pd       5.57167487       8.20658907      14.03350564
Pd       8.32721092       8.31969428      13.97100009
Pd      11.07395040       8.26221868      13.97833742
Pd      13.68061506      10.97443517      14.06754187
Pd       2.75103717      11.07464095      13.93900706
Pd       5.47020300      10.94234625      13.85808358
Pd       8.13771344      11.06253246      14.13985567
Pd      10.88107435      10.99378007      13.91748348
Pd      12.65166095       6.92058490      16.27298581
Pd       9.25429896       9.74550057      16.35191841
Pd       1.84367134      12.52885706      16.63894162
Pd       1.60989211       7.20093956      15.98862479
Pd      12.47560685       9.58122489      16.19868463
Pd       9.45546213       1.68222648      16.46748237
Pd       3.89280390       1.23404209      16.42958060
Pd       5.95186582      10.06948095      16.39768135
Pd       4.30904359      12.14327325      15.91584681
Pd      12.21934243      12.41546685      16.05147148
Pd       2.13832347       4.52133020      16.31608214
Pd       5.59354194       3.38113504      16.40856352
Pd      11.78898400       3.69993676      16.62638226
Pd       2.96153843       9.69366863      16.26546336
Pd       7.14573331       7.26319430      16.29208028
Pd       7.02345191      13.60484763      16.29294329
Pd       9.75122880       6.96283526      15.97100847
Pd       8.46968383       4.47383244      16.43721911
Pd       0.40765128       1.84238806      16.45116966
Pd       4.35531866       6.80809867      16.34096547
O        9.91539114       3.43461818      17.25691200
O       10.93232514      10.84295013      15.98746969
O        0.09055072      13.55927469      16.10196511
O       12.24706134       1.83412030      17.29795496
O       11.31717357       0.85639063      16.87914615
O        4.52808583       8.72814047      16.90215711
O        2.38396788       2.43656906      15.97400844
O        1.37940515       1.10986008      18.19525456
O        8.93442761      13.69069783      15.78630124
O        1.44790628      10.86503480      15.63352605
O        2.40277416       0.30749731      17.82335056
O        4.12381625       4.81244239      16.56695203
O        6.92852169       5.42437804      15.61674005
O        7.58735126       8.98088088      17.07823304
O        7.12431487       2.01314542      16.15813876
O        0.09022458       3.87422571      16.03194114
O       11.31890200       5.52642967      15.98765335
O        0.11894746       8.32458772      16.85038832
O        5.17665855      13.60454893      17.00772561
O        7.28029549      11.53573667      16.03436196
