115
Lattice="13.75323 0.0 0.0 0.0 13.75323 0.0 0.0 0.0 23.89" Properties=species:S:1:pos:R:3 entry_id=21 rank=11 energy=-572.4279174804688 parent_id=20 pbc="T T F"
Pd       0.00000000       0.00000000      10.00000000
Pd       2.75064538       0.00000000      10.00000000
Pd       5.50129076       0.00000000      10.00000000
Pd       8.25193614       0.00000000      10.00000000
Pd      11.00258152       0.00000000      10.00000000
Pd       0.00000000       2.75064538      10.00000000
Pd       2.75064538       2.75064538      10.00000000
Pd       5.50129076       2.75064538      10.00000000
Pd       8.25193614       2.75064538      10.00000000
Pd      11.00258152       2.75064538      10.00000000
Pd       0.00000000       5.50129076      10.00000000
Pd       2.75064538       5.50129076      10.00000000
Pd       5.50129076       5.50129076      10.00000000
Pd       8.25193614       5.50129076      10.00000000
Pd      11.00258152       5.50129076      10.00000000
Pd       0.00000000       8.25193614      10.00000000
Pd       2.75064538       8.25193614      10.00000000
Pd       5.50129076       8.25193614      10.00000000
Pd       8.25193614       8.25193614      10.00000000
Pd      11.00258152       8.25193614      10.00000000
Pd       0.00000000      11.00258152      10.00000000
Pd       2.75064538      11.00258152      10.00000000
Pd       5.50129076      11.00258152      10.00000000
Pd       8.25193614      11.00258152      10.00000000
Pd      11.00258152      11.00258152      10.00000000
Pd       1.35613994       1.37689948      11.98860801
Pd       4.09567764       1.36598771      11.96174938
Pd       6.85559674       1.37789545      11.97878431
Pd       9.57512057       1.39592898      11.89594876
Pd      12.38684272       1.37174114      11.92044161
Pd       1.35705898       4.13620933      11.97108181
Pd       4.09743589       4.11587511      11.99307863
Pd       6.82767567       4.11927056      11.98607728
Pd       9.56728621       4.13975942      11.94281254
Pd      12.36578195       4.13265160      11.93417299
Pd       1.37110082       6.89256210      11.94010419
Pd       4.13935064       6.87026939      11.96482277
Pd       6.87097415       6.85831372      11.95140951
Pd       9.64205429       6.82915781      11.94515418
Pd      12.39111484       6.85622887      11.94896407
Pd       1.37709040       9.64505830      11.96265602
Pd       4.11777592       9.66324146      11.95099537
Pd       6.89476706       9.64088005      11.95142944
Pd       9.64982872       9.59779534      11.89439304
Pd      12.42487279       9.60955999      11.94161946
Pd       1.36189666      12.39635216      11.97710028
Pd       4.10877807      12.38135163      11.97978536
Pd       6.86816975      12.39901143      11.97280504
Pd       9.63028672      12.36702810      11.91406436
Pd      12.38885505      12.35762195      11.99564484
Pd       0.02765131       0.01847771      13.99791380
Pd       2.76403851      13.75102756      14.03574503
Pd       5.46786361       0.00716503      13.99388547
Pd       8.28582920       0.03663745      13.90786387
Pd      11.01537797       0.05081776      13.92182203
Pd      13.63473045       2.81196712      13.95910162
Pd       2.70105966       2.74733633      13.97183405
Pd       5.45289587       2.65439709      13.96635412
Pd       8.19687498       2.76974360      14.03462375
Pd      10.90192256       2.73560982      13.93650868
Pd       0.03938623       5.50784915      14.06978053
Pd       2.73159015       5.59304391      13.91917811
Pd       5.37677043       5.38091722      14.08917906
Pd       8.27975657       5.54858281      13.90381962
Pd      11.04665885       5.44867325      13.93366391
Pd       0.03041723       8.22426114      13.93792460
Pd       2.84464464       8.27849924      13.91700223
Pd       5.54700289       8.18956534      14.01447292
Pd       8.31316326       8.31380253      13.95638198
Pd      11.05963425       8.25401767      13.97639617
Pd      13.68650749      10.95391591      14.06185212
Pd       2.74994748      11.01826227      13.94981949
Pd       5.51287271      10.97998759      13.91029882
Pd       8.23453345      11.04276093      14.06181310
Pd      10.92134265      10.98972808      13.90272311
Pd      12.60873904       6.88100332      16.26561662
Pd       9.20396371       9.73251564      16.31743972
Pd       1.74139715      12.47616646      16.68765944
Pd       1.57568515       7.10797714      15.96189908
Pd      12.45379934       9.54323575      16.18593178
Pd       9.19502342       1.54327472      16.51066587
Pd       3.77251027       1.11428432      16.51893518
Pd       5.72435391       9.86368715      16.41187941
Pd       4.16947630      12.06789048      15.95508980
Pd      12.18969941      12.35608651      16.04288626
Pd       2.18614289       4.42957652      16.24853587
Pd       5.72120654       3.08988112      16.53035276
Pd      11.67052464       3.64314734      16.55827412
Pd       2.86523842       9.58257719      16.31987522
Pd       7.10243940       7.29911000      16.26561397
Pd       6.79059103      13.44456812      16.43162783
Pd       9.70403383       6.94447893      15.95772131
Pd       8.34215764       4.37534963      16.35775897
Pd       0.31743174       1.79950172      16.39356079
Pd       4.31111665       6.65898589      16.39988007
O        9.77470997       3.31966531      17.16860301
O       10.90231474      10.79319942      15.98099011
O        0.04137145      13.52448389      16.07834211
O       12.09028901       1.74454259      17.05094768
O       11.16774367       0.82523428      16.41676369
O        4.36086498       8.54488339      17.04785964
O        2.32497663       2.34651136      15.96608479
O        1.22144712       1.10040465      18.20211670
O        8.66832644      13.52440544      15.86524693
O        1.42374578      10.81744342      15.63745293
O        2.23832193       0.26871929      17.88802662
O        4.24871268       4.62989740      16.29244833
O        6.92627259       5.48120923      15.53809537
O        7.51787352       9.02276559      17.05240348
O        7.08266115       1.65958992      16.92173179
O        0.05531593       3.82985551      16.04800219
O       11.24696349       5.50391008      16.02325897
O        0.10142033       8.27596844      16.81615758
O        4.96605323      13.44907511      17.18479862
O        6.82622176      11.41526513      15.70168887
