115
Lattice="13.75323 0.0 0.0 0.0 13.75323 0.0 0.0 0.0 23.89" Properties=species:S:1:pos:R:3 entry_id=24 rank=1 energy=-573.005615234375 parent_id=23 pbc="T T F"
Pd       0.00000000       0.00000000      10.00000000
Pd       2.75064538       0.00000000      10.00000000
Pd       5.50129076       0.00000000      10.00000000
Pd       8.25193614       0.00000000      10.00000000
Pd      11.00258152       0.00000000      10.00000000
Pd       0.00000000       2.75064538      10.00000000
Pd       2.75064538       2.75064538      10.00000000
Pd       5.50129076       2.75064538      10.00000000
Pd       8.25193614       2.75064538      10.00000000
Pd      11.00258152       2.75064538      10.00000000
Pd       0.00000000       5.50129076      10.00000000
Pd       2.75064538       5.50129076      10.00000000
Pd       5.50129076       5.50129076      10.00000000
Pd       8.25193614       5.50129076      10.00000000
Pd      11.00258152       5.50129076      10.00000000
Pd       0.00000000       8.25193614      10.00000000
Pd       2.75064538       8.25193614      10.00000000
Pd       5.50129076       8.25193614      10.00000000
Pd       8.25193614       8.25193614      10.00000000
Pd      11.00258152       8.25193614      10.00000000
Pd       0.00000000      11.00258152      10.00000000
Pd       2.75064538      11.00258152      10.00000000
Pd       5.50129076      11.00258152      10.00000000
Pd       8.25193614      11.00258152      10.00000000
Pd      11.00258152      11.00258152      10.00000000
Pd       1.34963230       1.38789694      12.02834296
Pd       4.07153040       1.36215231      11.98270996
Pd       6.84196100       1.35766107      11.98921460
Pd       9.57512057       1.39592898      11.89594876
Pd      12.38684272       1.37174114      11.92044161
Pd       1.36097604       4.12154183      11.99603226
Pd       4.08338164       4.11904638      11.96568176
Pd       6.82953321       4.12405788      11.96813525
Pd       9.56728621       4.13975942      11.94281254
Pd      12.36578195       4.13265160      11.93417299
Pd       1.37110082       6.89256210      11.94010419
Pd       4.13935064       6.87026939      11.96482277
Pd       6.87097415       6.85831372      11.95140951
Pd       9.64205429       6.82915781      11.94515418
Pd      12.39111484       6.85622887      11.94896407
Pd       1.38181673       9.64805279      11.96261899
Pd       4.11777592       9.66324146      11.95099537
Pd       6.89476706       9.64088005      11.95142944
Pd       9.64982872       9.59779534      11.89439304
Pd      12.42487279       9.60955999      11.94161946
Pd       1.36742728      12.40953093      11.98538339
Pd       4.11834991      12.39639161      12.00094689
Pd       6.86816975      12.39901143      11.97280504
Pd       9.63028672      12.36702810      11.91406436
Pd      12.39294946      12.36348919      11.98844479
Pd       0.06448016       0.04281376      14.06520789
Pd       2.78033421      13.75290394      14.07405774
Pd       5.49361969       0.07540352      14.08629942
Pd       8.28070955      13.74860421      13.96153237
Pd      11.02741092       0.05899392      13.91393307
Pd      13.63601453       2.78570309      14.01665853
Pd       2.64243561       2.70469797      14.10995929
Pd       5.36986018       2.76026626      13.89454728
Pd       8.20381052       2.72494559      13.96401418
Pd      10.91860154       2.73971818      13.94994849
Pd       0.02284114       5.55054817      14.00736586
Pd       2.76951924       5.61257070      13.88479456
Pd       5.45975827       5.43548337      14.08752996
Pd       8.24775490       5.49361139      13.95886747
Pd      11.01570630       5.43286954      13.91671948
Pd      13.74300601       8.25291338      13.93077599
Pd       2.82097579       8.31046727      13.95415153
Pd       5.53715995       8.21889235      14.01875927
Pd       8.29215811       8.24883991      13.95461074
Pd      11.02430652       8.22219253      13.98219892
Pd      13.65820286      10.95819120      14.04412837
Pd       2.73088383      11.02250595      13.95403356
Pd       5.49907994      11.00649798      13.90533813
Pd       8.27349891      10.97750499      13.99454878
Pd      10.93722050      10.96039795      13.89065417
Pd      12.45454586       6.73198240      16.25980431
Pd       9.15305246       9.63703987      16.30174767
Pd       1.69555043      12.49247234      16.63696786
Pd       1.41176660       7.27597797      16.00138123
Pd      12.29184898       9.46642744      16.21703520
Pd       9.41643501       1.06263162      16.55464365
Pd       3.96151501       1.07708536      16.56557974
Pd       5.68437251       9.85123372      16.45671912
Pd       4.14156579      12.05073863      15.95451347
Pd      12.13535156      12.31202314      16.07034558
Pd       1.83515842       4.59994549      16.09284550
Pd       6.51690704       2.08156011      16.02510934
Pd      11.71465464       3.48597228      16.71494055
Pd       2.76575171       9.68739262      16.42049632
Pd       7.04213529       7.14580229      16.26244983
Pd       6.92952161      13.07411840      16.54565922
Pd       9.66980058       6.86866508      15.96901786
Pd       8.38872792       4.08155186      16.35175571
Pd       0.69296093       2.18385946      17.09713601
Pd       4.10924723       7.06396625      16.36875347
O        9.82878551       2.95996967      17.15170678
O       10.80820805      10.77014080      15.97140628
O       13.72373491      13.43628487      16.07793411
O       12.62319180       2.11952365      17.71505747
O       11.17133323       0.45428792      15.87534628
O        4.27307267       8.77733677      17.30406638
O        2.54893151       2.46377267      16.18472845
O        1.47119348       0.93980552      18.42695883
O        8.76066720      13.06072630      15.85689502
O        1.33144614      10.83223405      15.61289716
O        2.42759421       0.13960129      17.86139211
O        3.73042997       5.24086890      15.78010473
O        6.91401213       5.26847209      15.67134054
O        7.45631516       8.89778827      17.00086781
O        7.54371147       1.08084523      17.38071836
O       13.70286466       3.69333028      15.93286003
O       11.14424015       5.28256540      15.97444579
O       13.60725712       8.17032385      16.91159338
O        5.06191407      13.29565371      17.22818656
O        6.82766074      11.22033796      15.58845284
