115
Lattice="13.75323 0.0 0.0 0.0 13.75323 0.0 0.0 0.0 23.89" Properties=species:S:1:pos:R:3 entry_id=11 rank=6 energy=-572.5142211914062 parent_id=10 pbc="T T F"
Pd       0.00000000       0.00000000      10.00000000
Pd       2.75064538       0.00000000      10.00000000
Pd       5.50129076       0.00000000      10.00000000
Pd       8.25193614       0.00000000      10.00000000
Pd      11.00258152       0.00000000      10.00000000
Pd       0.00000000       2.75064538      10.00000000
Pd       2.75064538       2.75064538      10.00000000
Pd       5.50129076       2.75064538      10.00000000
Pd       8.25193614       2.75064538      10.00000000
Pd      11.00258152       2.75064538      10.00000000
Pd       0.00000000       5.50129076      10.00000000
Pd       2.75064538       5.50129076      10.00000000
Pd       5.50129076       5.50129076      10.00000000
Pd       8.25193614       5.50129076      10.00000000
Pd      11.00258152       5.50129076      10.00000000
Pd       0.00000000       8.25193614      10.00000000
Pd       2.75064538       8.25193614      10.00000000
Pd       5.50129076       8.25193614      10.00000000
Pd       8.25193614       8.25193614      10.00000000
Pd      11.00258152       8.25193614      10.00000000
Pd       0.00000000      11.00258152      10.00000000
Pd       2.75064538      11.00258152      10.00000000
Pd       5.50129076      11.00258152      10.00000000
Pd       8.25193614      11.00258152      10.00000000
Pd      11.00258152      11.00258152      10.00000000
Pd       1.36134965       1.39865235      12.03953926
Pd       4.09246258       1.40673604      12.00788707
Pd       6.82776551       1.38563781      11.98638080
Pd       9.57512057       1.39592898      11.89594876
Pd      12.38684272       1.37174114      11.92044161
Pd       1.37809503       4.11833182      11.99109547
Pd       4.09004076       4.13250842      12.02888144
Pd       6.82426371       4.11814732      11.99820799
Pd       9.56728621       4.13975942      11.94281254
Pd      12.36578195       4.13265160      11.93417299
Pd       1.37110082       6.89256210      11.94010419
Pd       4.13935064       6.87026939      11.96482277
Pd       6.87097415       6.85831372      11.95140951
Pd       9.64205429       6.82915781      11.94515418
Pd      12.39111484       6.85622887      11.94896407
Pd       1.38011780       9.65848760      11.97973414
Pd       4.11777592       9.66324146      11.95099537
Pd       6.89476706       9.64088005      11.95142944
Pd       9.64982872       9.59779534      11.89439304
Pd      12.42487279       9.60955999      11.94161946
Pd       1.36113541      12.42025396      11.99488429
Pd       4.10356239      12.41530432      11.97505803
Pd       6.86816975      12.39901143      11.97280504
Pd       9.63028672      12.36702810      11.91406436
Pd      12.40014550      12.35641650      11.99570415
Pd       0.02963093       0.04466296      14.06710365
Pd       2.79092252       0.07271981      14.08216755
Pd       5.50011327      13.73488813      14.00537803
Pd       8.26373321       0.02096971      13.88989334
Pd      11.00149039       0.02551538      13.88718737
Pd      13.63067284       2.77528772      13.99180549
Pd       2.64515433       2.79587952      14.11833904
Pd       5.45620069       2.68858334      14.04709104
Pd       8.24560049       2.73384002      13.97991149
Pd      10.91605924       2.69843300      13.90836762
Pd       0.02338002       5.52052474      13.92596106
Pd       2.71380231       5.57918455      14.02820756
Pd       5.42000964       5.47363539      14.08004762
Pd       8.29813328       5.49259344      13.99219481
Pd      11.01292317       5.41910028      13.95993138
Pd       0.07852483       8.26358647      13.96985711
Pd       2.84636178       8.30287677      13.93953069
Pd       5.60227641       8.27458252      13.96141347
Pd       8.31590871       8.27673666      13.96497447
Pd      11.05061145       8.24783071      13.91099458
Pd      13.65769884      11.00409589      14.08307509
Pd       2.78397202      11.08853010      13.95672001
Pd       5.48992322      10.97447029      13.89368297
Pd       8.18514198      11.00439520      13.97452187
Pd      10.90490453      11.00463740      13.92156522
Pd      12.49686712       6.73083148      16.08891033
Pd       9.15583917       9.72938946      16.42886006
Pd       1.84367491      12.55017754      16.51560183
Pd       1.63651087       7.24666957      16.24674149
Pd      12.15544848       9.63848635      16.06574908
Pd       9.23174600       1.37251859      16.37136234
Pd       4.01832248       1.29974512      16.65219422
Pd       5.99352033       9.93563145      16.43112657
Pd       4.39793872      12.14515040      16.00322544
Pd      12.12605893      12.50849427      16.11938806
Pd       0.82226541       4.69422645      16.41920955
Pd       3.91442788       4.42278881      16.33515556
Pd      11.18889958       3.39416147      16.60117620
Pd       2.94964769       9.75204727      16.32645940
Pd       7.15013338       7.07421302      16.28535802
Pd       7.03802235      13.23407914      16.38345952
Pd       9.77663030       7.10041613      15.97182968
Pd       7.37653916       3.35071962      16.46229238
Pd       0.40224284       1.98575808      16.94597751
Pd       4.36761255       7.08622825      16.00993838
O        9.26253311       3.17892079      17.15777900
O       10.72464085      11.01031312      16.02599803
O        0.02617887      13.57736975      16.11033524
O       11.91584655       1.64009602      17.49725586
O       11.15178262       0.55040720      17.14324482
O        4.48950013       8.81708863      17.07668395
O        2.64973399       2.64983839      16.18407973
O        1.49447409       1.01108322      18.25738946
O        8.90035760      13.32602268      15.75225252
O        1.42842188      10.85722223      15.58880532
O        2.51781981       0.26791764      17.68296738
O        2.46321971       5.60433928      17.06854181
O        6.94978013       5.25739947      15.55115898
O        7.56519029       8.75960886      17.16417386
O        5.39273178       2.97727012      16.08644951
O       13.12974008       3.38926095      15.93617321
O       11.03446394       5.37219821      16.05266630
O       13.66621932       8.33372085      16.09320324
O        5.25780226      13.56784380      17.15896993
O        7.54557900      11.11697517      15.99102236
