115
Lattice="13.75323 0.0 0.0 0.0 13.75323 0.0 0.0 0.0 23.89" Properties=species:S:1:pos:R:3 entry_id=28 rank=14 energy=-572.1405029296875 parent_id=3 pbc="T T F"
Pd       0.00000000       0.00000000      10.00000000
Pd       2.75064538       0.00000000      10.00000000
Pd       5.50129076       0.00000000      10.00000000
Pd       8.25193614       0.00000000      10.00000000
Pd      11.00258152       0.00000000      10.00000000
Pd       0.00000000       2.75064538      10.00000000
Pd       2.75064538       2.75064538      10.00000000
Pd       5.50129076       2.75064538      10.00000000
Pd       8.25193614       2.75064538      10.00000000
Pd      11.00258152       2.75064538      10.00000000
Pd       0.00000000       5.50129076      10.00000000
Pd       2.75064538       5.50129076      10.00000000
Pd       5.50129076       5.50129076      10.00000000
Pd       8.25193614       5.50129076      10.00000000
Pd      11.00258152       5.50129076      10.00000000
Pd       0.00000000       8.25193614      10.00000000
Pd       2.75064538       8.25193614      10.00000000
Pd       5.50129076       8.25193614      10.00000000
Pd       8.25193614       8.25193614      10.00000000
Pd      11.00258152       8.25193614      10.00000000
Pd       0.00000000      11.00258152      10.00000000
Pd       2.75064538      11.00258152      10.00000000
Pd       5.50129076      11.00258152      10.00000000
Pd       8.25193614      11.00258152      10.00000000
Pd      11.00258152      11.00258152      10.00000000
Pd       1.34056546       1.38328760      12.07490970
Pd       4.08626008       1.40948043      12.01637412
Pd       6.83576157       1.37202340      12.00891946
Pd       9.57512057       1.39592898      11.89594876
Pd      12.38684272       1.37174114      11.92044161
Pd       1.38062483       4.10794736      11.98956792
Pd       4.08560287       4.12910565      12.03810005
Pd       6.81642579       4.11118892      12.00166156
Pd       9.56728621       4.13975942      11.94281254
Pd      12.36578195       4.13265160      11.93417299
Pd       1.37110082       6.89256210      11.94010419
Pd       4.13935064       6.87026939      11.96482277
Pd       6.87097415       6.85831372      11.95140951
Pd       9.64205429       6.82915781      11.94515418
Pd      12.39111484       6.85622887      11.94896407
Pd       1.39355659       9.65295591      11.95482652
Pd       4.11777592       9.66324146      11.95099537
Pd       6.89476706       9.64088005      11.95142944
Pd       9.64982872       9.59779534      11.89439304
Pd      12.42487279       9.60955999      11.94161946
Pd       1.36081678      12.43560182      11.99898032
Pd       4.10495011      12.42650064      11.97962757
Pd       6.86816975      12.39901143      11.97280504
Pd       9.63028672      12.36702810      11.91406436
Pd      12.40831990      12.35957239      11.97544254
Pd      13.73756610      13.72495425      14.19524773
Pd       2.78260960       0.08833157      14.09158256
Pd       5.54356102      13.73691723      14.01380237
Pd       8.34502188      13.75189126      13.98309454
Pd      11.04032072       0.06966438      13.81989075
Pd      13.59632967       2.72574768      14.00004062
Pd       2.60257715       2.81760464      14.14614676
Pd       5.41942268       2.69084125      14.06378728
Pd       8.21749863       2.71824022      13.98868264
Pd      10.89145103       2.72735601      13.93108588
Pd       0.01582528       5.49578804      13.91453892
Pd       2.70601613       5.59010323      14.02976920
Pd       5.40852620       5.48495623      14.08210937
Pd       8.29491128       5.49518966      13.98127547
Pd      11.00528674       5.44727217      13.94073109
Pd       0.09473281       8.23708788      13.93895493
Pd       2.85694700       8.31164128      13.93929662
Pd       5.60461121       8.28349673      13.97268206
Pd       8.31531325       8.28382920      13.95527554
Pd      11.05355767       8.27248647      13.89692656
Pd      13.68204617      10.96658788      13.99054131
Pd       2.76571604      11.09865678      13.94477860
Pd       5.46966959      10.98634565      13.89287726
Pd       8.17225747      11.01738669      13.99336207
Pd      10.92161423      11.04990920      13.90611356
Pd      12.52940446       6.80340595      16.06170157
Pd       9.11315103       9.76103667      16.41677463
Pd       1.68471295      12.53561319      16.47277878
Pd       1.67118289       7.34749877      16.29673738
Pd      12.20694573       9.65436127      16.01317346
Pd       9.26191597       1.54041488      16.41093930
Pd       3.93453385       1.28279733      16.64095949
Pd       5.96043803      10.02932178      16.43167084
Pd       4.31183041      12.21183109      15.97018643
Pd      11.32661811      12.95112804      16.33093071
Pd       0.95195245       4.80888612      16.39167359
Pd       3.93201992       4.44378531      16.33793742
Pd      11.25264110       3.55755687      16.58493725
Pd       2.91740867       9.80270270      16.31903189
Pd       7.14120168       7.12581078      16.27684423
Pd       7.14621121      13.29891627      16.43236045
Pd       9.78005649       7.18254420      15.98251562
Pd       7.34279019       3.41993410      16.45179950
Pd       0.43169452       2.05984216      16.93170966
Pd       4.37174075       7.12037794      16.03440802
O        9.27821350       3.37068091      17.09878356
O       10.72381176      10.94179407      15.97934640
O       13.32136887      13.25827605      16.11994186
O       12.03561769       1.92020596      17.55807213
O       11.11364124       0.87473830      17.50722152
O        4.47132015       8.88742814      17.06192275
O        2.45650841       2.55891747      16.20901238
O        1.37133692       0.92926731      18.23618069
O        9.13723646      13.37814186      15.94746549
O        1.35370429      10.83241717      15.56032996
O        2.41386206       0.20677974      17.66279276
O        2.58822078       5.73676015      17.08054595
O        6.94684663       5.30988158      15.54082748
O        7.51598570       8.82392282      17.14645134
O        5.34559904       2.97490024      16.10235322
O       13.22979415       3.51687263      15.91650484
O       11.04611821       5.48405356      16.02295761
O       13.72095170       8.38557206      16.05862485
O        5.28691395      13.60759810      17.06485558
O        7.51697877      11.22141259      16.00419948
