115
Lattice="13.75323 0.0 0.0 0.0 13.75323 0.0 0.0 0.0 23.89" Properties=species:S:1:pos:R:3 entry_id=3 rank=12 energy=-572.151123046875 parent_id=2 pbc="T T F"
Pd       0.00000000       0.00000000      10.00000000
Pd       2.75064538       0.00000000      10.00000000
Pd       5.50129076       0.00000000      10.00000000
Pd       8.25193614       0.00000000      10.00000000
Pd      11.00258152       0.00000000      10.00000000
Pd       0.00000000       2.75064538      10.00000000
Pd       2.75064538       2.75064538      10.00000000
Pd       5.50129076       2.75064538      10.00000000
Pd       8.25193614       2.75064538      10.00000000
Pd      11.00258152       2.75064538      10.00000000
Pd       0.00000000       5.50129076      10.00000000
Pd       2.75064538       5.50129076      10.00000000
Pd       5.50129076       5.50129076      10.00000000
Pd       8.25193614       5.50129076      10.00000000
Pd      11.00258152       5.50129076      10.00000000
Pd       0.00000000       8.25193614      10.00000000
Pd       2.75064538       8.25193614      10.00000000
Pd       5.50129076       8.25193614      10.00000000
Pd       8.25193614       8.25193614      10.00000000
Pd      11.00258152       8.25193614      10.00000000
Pd       0.00000000      11.00258152      10.00000000
Pd       2.75064538      11.00258152      10.00000000
Pd       5.50129076      11.00258152      10.00000000
Pd       8.25193614      11.00258152      10.00000000
Pd      11.00258152      11.00258152      10.00000000
Pd       1.34644373       1.37355400      12.07528495
Pd       4.08645287       1.39520553      12.02203532
Pd       6.83963494       1.36173328      12.01249361
Pd       9.57512057       1.39592898      11.89594876
Pd      12.38684272       1.37174114      11.92044161
Pd       1.38836273       4.10566077      11.98500097
Pd       4.09392757       4.11687519      12.03447314
Pd       6.82550471       4.10009435      11.99684926
Pd       9.56728621       4.13975942      11.94281254
Pd      12.36578195       4.13265160      11.93417299
Pd       1.37110082       6.89256210      11.94010419
Pd       4.13935064       6.87026939      11.96482277
Pd       6.87097415       6.85831372      11.95140951
Pd       9.64205429       6.82915781      11.94515418
Pd      12.39111484       6.85622887      11.94896407
Pd       1.37076202       9.67499491      11.99232755
Pd       4.11777592       9.66324146      11.95099537
Pd       6.89476706       9.64088005      11.95142944
Pd       9.64982872       9.59779534      11.89439304
Pd      12.42487279       9.60955999      11.94161946
Pd       1.36497847      12.42178279      12.01528251
Pd       4.10644152      12.41778667      11.98349580
Pd       6.86816975      12.39901143      11.97280504
Pd       9.63028672      12.36702810      11.91406436
Pd      12.41769414      12.34455085      11.98060008
Pd       0.00260228       0.05360125      14.17088799
Pd       2.79003886       0.06065817      14.12035039
Pd       5.54860336      13.71842220      14.01894733
Pd       8.34718636      13.72783106      14.00616529
Pd      11.03948800       0.07766183      13.78064644
Pd      13.61371739       2.76054900      13.97318593
Pd       2.62214133       2.78999120      14.14440213
Pd       5.43793879       2.66570568      14.06074946
Pd       8.23658359       2.69716466      13.98695878
Pd      10.90525814       2.72173242      13.92662059
Pd       0.04515675       5.51646633      13.91260991
Pd       2.73379307       5.56528839      14.02427692
Pd       5.43364264       5.45185011      14.06630588
Pd       8.31065629       5.47228019      13.97619221
Pd      11.03033344       5.42911045      13.94049829
Pd       0.08682859       8.27254915      13.95498803
Pd       2.85153123       8.29102893      13.93085307
Pd       5.60243728       8.26338993      13.97521319
Pd       8.31198502       8.25734089      13.95995025
Pd      11.05020017       8.24879709      13.89216628
Pd      13.61373859      11.00830469      14.16352934
Pd       2.79688770      11.08121135      13.95189090
Pd       5.49530403      10.96235498      13.89741657
Pd       8.17719675      10.98975361      13.99366212
Pd      10.90277662      11.01818468      13.89009369
Pd      12.56163039       6.72266057      16.07936654
Pd       9.09330819       9.62235600      16.44496176
Pd       1.82793153      12.45509253      16.51071981
Pd       1.70421935       7.28149576      16.28743743
Pd      12.18623253       9.51785437      16.05087414
Pd       9.27577096       1.46825471      16.43207011
Pd       3.95148619       1.23436307      16.67334750
Pd       5.99805073       9.93106439      16.44448330
Pd       4.41915067      12.16487975      15.99448582
Pd      11.20155344      12.80056563      16.18887783
Pd       1.00663579       4.73495477      16.36768888
Pd       3.97663820       4.37652146      16.32023924
Pd      11.29474273       3.46603567      16.58136074
Pd       3.02391285       9.71742202      16.32764548
Pd       7.15327324       7.02593546      16.29094933
Pd       7.12774451      13.19505858      16.46121617
Pd       9.79126251       7.07583521      15.95181105
Pd       7.37540169       3.35073786      16.45827372
Pd       0.45864490       1.93209974      16.87088092
Pd       4.39187531       7.04812580      16.01684770
O        9.31758588       3.29930713      17.10620837
O       10.67849051      10.76672153      15.96330348
O       13.13981811      12.57521729      15.69440467
O       12.09091725       1.78161638      17.47076955
O       11.15945772       0.74264292      17.43153073
O        4.53631392       8.77035732      17.10430966
O        2.42778897       2.44765801      16.19747401
O        1.33893561       0.76388853      18.19303875
O        9.12439166      13.30875262      15.97596651
O        1.49769710      10.77138791      15.56903743
O        2.48833670       0.12536266      17.71086703
O        2.63585578       5.67021809      17.05979093
O        6.96789835       5.22557938      15.52745441
O        7.50911518       8.70682028      17.19832245
O        5.37140131       2.89583315      16.10428324
O       13.27528148       3.44559302      15.91834447
O       11.08504499       5.39649827      16.03033423
O       13.74870771       8.30952876      16.08793776
O        5.30382578      13.57819262      17.13983225
O        7.55797021      11.12171171      16.01515249
