115
Lattice="13.75323 0.0 0.0 0.0 13.75323 0.0 0.0 0.0 23.89" Properties=species:S:1:pos:R:3 entry_id=16 rank=24 energy=-571.5459594726562 parent_id=9 pbc="T T F"
Pd       0.00000000       0.00000000      10.00000000
Pd       2.75064538       0.00000000      10.00000000
Pd       5.50129076       0.00000000      10.00000000
Pd       8.25193614       0.00000000      10.00000000
Pd      11.00258152       0.00000000      10.00000000
Pd       0.00000000       2.75064538      10.00000000
Pd       2.75064538       2.75064538      10.00000000
Pd       5.50129076       2.75064538      10.00000000
Pd       8.25193614       2.75064538      10.00000000
Pd      11.00258152       2.75064538      10.00000000
Pd       0.00000000       5.50129076      10.00000000
Pd       2.75064538       5.50129076      10.00000000
Pd       5.50129076       5.50129076      10.00000000
Pd       8.25193614       5.50129076      10.00000000
Pd      11.00258152       5.50129076      10.00000000
Pd       0.00000000       8.25193614      10.00000000
Pd       2.75064538       8.25193614      10.00000000
Pd       5.50129076       8.25193614      10.00000000
Pd       8.25193614       8.25193614      10.00000000
Pd      11.00258152       8.25193614      10.00000000
Pd       0.00000000      11.00258152      10.00000000
Pd       2.75064538      11.00258152      10.00000000
Pd       5.50129076      11.00258152      10.00000000
Pd       8.25193614      11.00258152      10.00000000
Pd      11.00258152      11.00258152      10.00000000
Pd       1.34929476       1.38505541      11.98296619
Pd       4.10253972       1.39194352      11.96556286
Pd       6.86736958       1.40647834      12.02263863
Pd       9.57512057       1.39592898      11.89594876
Pd      12.38684272       1.37174114      11.92044161
Pd       1.35029420       4.14729489      11.97991306
Pd       4.09136855       4.12242205      11.99370031
Pd       6.84103467       4.09513445      12.02326793
Pd       9.56728621       4.13975942      11.94281254
Pd      12.36578195       4.13265160      11.93417299
Pd       1.37110082       6.89256210      11.94010419
Pd       4.13935064       6.87026939      11.96482277
Pd       6.87097415       6.85831372      11.95140951
Pd       9.64205429       6.82915781      11.94515418
Pd      12.39111484       6.85622887      11.94896407
Pd       1.38086435       9.65236708      11.97678553
Pd       4.11777592       9.66324146      11.95099537
Pd       6.89476706       9.64088005      11.95142944
Pd       9.64982872       9.59779534      11.89439304
Pd      12.42487279       9.60955999      11.94161946
Pd       1.37092667      12.39018631      11.98229137
Pd       4.10945198      12.40139781      11.96444660
Pd       6.86816975      12.39901143      11.97280504
Pd       9.63028672      12.36702810      11.91406436
Pd      12.41479039      12.34262434      11.99993595
Pd       0.05599766       0.01442057      13.99605587
Pd       2.77966430       0.02812301      14.00411047
Pd       5.50628428       0.05547787      13.96885270
Pd       8.31539722       0.03607950      13.88436551
Pd      11.04203557       0.03378773      13.88559615
Pd      13.55530903       2.79256099      14.00021396
Pd       2.59959649       2.78468467      13.97965310
Pd       5.29848537       2.71352432      14.06591879
Pd       7.98089827       2.71499188      14.34948242
Pd      10.78690549       2.71454639      13.96348425
Pd       0.01721670       5.52196569      14.04652899
Pd       2.75728407       5.59120047      13.97419160
Pd       5.47932007       5.48473440      14.01869614
Pd       8.21288535       5.51295840      13.91761065
Pd      11.00510642       5.44589362      13.98541050
Pd       0.01134355       8.24814593      13.93185479
Pd       2.82317579       8.30545358      13.94758062
Pd       5.56499436       8.22394283      14.02755220
Pd       8.31749553       8.29569273      13.91747506
Pd      11.06619544       8.23233720      13.87875625
Pd      13.74114317      10.95626599      14.14243012
Pd       2.74781989      11.03657288      13.96248555
Pd       5.48483378      11.00612463      13.86572858
Pd       8.28845382      10.99638700      13.98666296
Pd      10.97262885      10.97742115      13.91818231
Pd      12.31938850       6.56451446      16.29668882
Pd       9.07901222      10.15744961      16.55488686
Pd       1.76308732      12.36254770      16.75590010
Pd       1.39673452       7.17837921      15.97326597
Pd      12.19701354       9.37870447      16.20729096
Pd       9.55392760       1.13458395      16.26988258
Pd       3.93568107       1.28336750      16.36039863
Pd       5.61881242       9.95335721      16.38065715
Pd       4.18469336      12.22054092      15.86780821
Pd      12.23198835      12.40384831      16.07362149
Pd       1.91014807       4.53714984      16.32939169
Pd       5.45580808       4.07695513      16.37073553
Pd      11.78737336       3.29346015      16.64150007
Pd       2.69435933       9.65298100      16.37004887
Pd       7.26552228       7.74151988      16.44105684
Pd       7.00061712      13.38697719      16.29464085
Pd       9.87564948       7.62529640      16.13373232
Pd       8.97359442       4.35681634      16.43440744
Pd       0.46735362       1.72617894      16.47002824
Pd       4.19902000       6.89031238      16.05786670
O        9.95231680       2.82958425      17.18498987
O       10.87496562      10.89136719      16.00607278
O        0.14672715      13.47475671      16.06085918
O       12.33861952       1.47816377      17.39735205
O       11.44035380       0.41836901      17.07391629
O        4.26043934       8.69153720      17.04187570
O        2.37663434       2.46517440      15.99065324
O        1.47591056       1.00793809      18.18138112
O        8.86613051      13.13819591      15.74407701
O        1.07151082      10.70454888      15.94663299
O        2.49196876       0.21796280      17.75402229
O        3.78588889       5.02946725      16.76932687
O        8.18662457       6.07790357      15.87770447
O        7.38531291       9.46798049      17.32931529
O        7.25440070       3.33593848      16.23757826
O       13.74907545       3.73909329      15.99975070
O       10.99818181       5.07210510      16.07567117
O       13.49707841       8.01136164      16.82505221
O        5.18179592      13.63354018      16.96004082
O        6.80392182      11.33079240      15.51067859
