115
Lattice="13.75323 0.0 0.0 0.0 13.75323 0.0 0.0 0.0 23.89" Properties=species:S:1:pos:R:3 entry_id=7 rank=21 energy=-571.8030395507812 parent_id=6 pbc="T T F"
Pd       0.00000000       0.00000000      10.00000000
Pd       2.75064538       0.00000000      10.00000000
Pd       5.50129076       0.00000000      10.00000000
Pd       8.25193614       0.00000000      10.00000000
Pd      11.00258152       0.00000000      10.00000000
Pd       0.00000000       2.75064538      10.00000000
Pd       2.75064538       2.75064538      10.00000000
Pd       5.50129076       2.75064538      10.00000000
Pd       8.25193614       2.75064538      10.00000000
Pd      11.00258152       2.75064538      10.00000000
Pd       0.00000000       5.50129076      10.00000000
Pd       2.75064538       5.50129076      10.00000000
Pd       5.50129076       5.50129076      10.00000000
Pd       8.25193614       5.50129076      10.00000000
Pd      11.00258152       5.50129076      10.00000000
Pd       0.00000000       8.25193614      10.00000000
Pd       2.75064538       8.25193614      10.00000000
Pd       5.50129076       8.25193614      10.00000000
Pd       8.25193614       8.25193614      10.00000000
Pd      11.00258152       8.25193614      10.00000000
Pd       0.00000000      11.00258152      10.00000000
Pd       2.75064538      11.00258152      10.00000000
Pd       5.50129076      11.00258152      10.00000000
Pd       8.25193614      11.00258152      10.00000000
Pd      11.00258152      11.00258152      10.00000000
Pd       1.37939121       1.40705573      12.00593219
Pd       4.09871549       1.38734787      12.04684310
Pd       6.81078119       1.36542912      12.00445487
Pd       9.57512057       1.39592898      11.89594876
Pd      12.38684272       1.37174114      11.92044161
Pd       1.39102936       4.13457737      11.97883235
Pd       4.10367909       4.11163145      12.03238584
Pd       6.83577335       4.09780164      11.98562701
Pd       9.56728621       4.13975942      11.94281254
Pd      12.36578195       4.13265160      11.93417299
Pd       1.37110082       6.89256210      11.94010419
Pd       4.13935064       6.87026939      11.96482277
Pd       6.87097415       6.85831372      11.95140951
Pd       9.64205429       6.82915781      11.94515418
Pd      12.39111484       6.85622887      11.94896407
Pd       1.39808151       9.66370979      11.99824629
Pd       4.11777592       9.66324146      11.95099537
Pd       6.89476706       9.64088005      11.95142944
Pd       9.64982872       9.59779534      11.89439304
Pd      12.42487279       9.60955999      11.94161946
Pd       1.37498895      12.40214265      12.01279025
Pd       4.08425994      12.41678362      12.01556847
Pd       6.86816975      12.39901143      11.97280504
Pd       9.63028672      12.36702810      11.91406436
Pd      12.37717784      12.35566840      11.96205765
Pd      13.66288551       0.05962109      13.92978427
Pd       2.72033109      11.01777829      14.08298166
Pd       5.41580159      13.67836563      14.11792981
Pd       8.19032995       0.01729335      13.91850534
Pd      10.91997946       0.02267601      13.88300484
Pd      13.64204050       2.79739651      13.94085603
Pd       2.64075003       0.01097913      14.12566697
Pd       5.48191961       2.62500723      14.10685027
Pd       8.25926862       2.72902818      13.97457027
Pd      10.92899323       2.69609094      13.92064050
Pd       0.06813877       5.52879665      13.94372458
Pd       2.68446913       2.91013216      14.14785164
Pd       5.47099300       5.41885685      14.02194989
Pd       8.34294751       5.50197551      13.96163068
Pd      11.05581031       5.41027318      13.95491420
Pd       0.11330386       8.29332146      13.96079712
Pd       2.76306126       5.60898587      14.01445308
Pd       5.61533267       8.25309854      13.94295132
Pd       8.33478347       8.28632353      13.97983894
Pd      11.07159935       8.24717615      13.91558416
Pd      13.71516346      11.04236788      14.06787940
Pd       2.85754642       8.32710087      14.00541133
Pd       5.47291292      10.95019547      13.89607219
Pd       8.19737501      11.01160265      13.97435866
Pd      10.92921691      10.99565959      13.92836206
Pd      12.54928647       6.70482256      16.07198494
Pd       9.24685944       9.67961264      16.45897282
Pd       1.09609040      12.12605040      16.30291001
Pd       1.66218404       7.07582390      16.30477385
Pd      12.29768029       9.60733934      16.04898935
Pd       9.25382774       1.42814010      16.39604492
Pd       3.85275297       0.68427452      16.55635006
Pd       6.13314627       9.86631501      16.38137061
Pd       4.32143989      11.86447205      16.06685629
Pd      12.06240502      12.52151899      16.10294788
Pd       1.08134194       4.43584558      16.31986451
Pd       4.06269906       4.28890069      16.27716393
Pd      11.31761690       3.38043270      16.62064377
Pd       3.02908061       9.52120208      16.63806575
Pd       7.22491616       7.06913693      16.30164051
Pd       6.96365568      13.13493468      16.45427807
Pd       9.83080674       7.05837990      15.96245926
Pd       7.52795681       3.46932603      16.46437145
Pd       0.42393981       1.79164335      16.98626740
Pd       4.41306298       6.98188658      15.94203739
O        9.39468459       3.22606761      17.18962168
O       10.80662527      10.92473642      16.03915333
O       13.64794247      13.69959525      15.94946715
O       11.92948417       1.62379184      17.55507460
O       11.11880811       0.56282749      17.18918119
O        4.72517568       8.64949591      17.01455758
O        2.37113746       1.54283114      15.60501660
O        1.38978330       0.63744133      18.28044947
O        8.79225368      13.40916178      15.79923048
O        1.44957795      10.42344190      17.05130636
O        2.22230659      13.48980890      17.71072337
O        2.62066976       5.44915873      17.01837587
O        7.01305444       5.29310557      15.51131977
O        7.67016596       8.72809064      17.21666877
O        5.60482703       3.05936875      16.07508685
O       13.26433940       3.24841153      15.93079462
O       11.10913585       5.33379485      16.04348486
O        0.02148936       8.25031248      16.05643741
O        5.20238058      13.21912722      17.32929090
O        7.64735454      11.09913577      15.99812303
