115
Lattice="13.75323 0.0 0.0 0.0 13.75323 0.0 0.0 0.0 23.89" Properties=species:S:1:pos:R:3 entry_id=2 rank=27 energy=-571.0711669921875 parent_id=1 pbc="T T F"
Pd       0.00000000       0.00000000      10.00000000
Pd       2.75064538       0.00000000      10.00000000
Pd       5.50129076       0.00000000      10.00000000
Pd       8.25193614       0.00000000      10.00000000
Pd      11.00258152       0.00000000      10.00000000
Pd       0.00000000       2.75064538      10.00000000
Pd       2.75064538       2.75064538      10.00000000
Pd       5.50129076       2.75064538      10.00000000
Pd       8.25193614       2.75064538      10.00000000
Pd      11.00258152       2.75064538      10.00000000
Pd       0.00000000       5.50129076      10.00000000
Pd       2.75064538       5.50129076      10.00000000
Pd       5.50129076       5.50129076      10.00000000
Pd       8.25193614       5.50129076      10.00000000
Pd      11.00258152       5.50129076      10.00000000
Pd       0.00000000       8.25193614      10.00000000
Pd       2.75064538       8.25193614      10.00000000
Pd       5.50129076       8.25193614      10.00000000
Pd       8.25193614       8.25193614      10.00000000
Pd      11.00258152       8.25193614      10.00000000
Pd       0.00000000      11.00258152      10.00000000
Pd       2.75064538      11.00258152      10.00000000
Pd       5.50129076      11.00258152      10.00000000
Pd       8.25193614      11.00258152      10.00000000
Pd      11.00258152      11.00258152      10.00000000
Pd       1.33734922       1.40593500      12.03872479
Pd       4.08623106       1.40197055      11.98207952
Pd       6.82761962       1.36205187      12.00229612
Pd       9.57512057       1.39592898      11.89594876
Pd      12.38684272       1.37174114      11.92044161
Pd       1.37584114       4.13188167      11.97691928
Pd       4.10426480       4.13803686      12.01993393
Pd       6.81976943       4.09942027      12.01010903
Pd       9.56728621       4.13975942      11.94281254
Pd      12.36578195       4.13265160      11.93417299
Pd       1.37110082       6.89256210      11.94010419
Pd       4.13935064       6.87026939      11.96482277
Pd       6.87097415       6.85831372      11.95140951
Pd       9.64205429       6.82915781      11.94515418
Pd      12.39111484       6.85622887      11.94896407
Pd       1.37417554       9.68973974      12.00225964
Pd       4.11777592       9.66324146      11.95099537
Pd       6.89476706       9.64088005      11.95142944
Pd       9.64982872       9.59779534      11.89439304
Pd      12.42487279       9.60955999      11.94161946
Pd       1.36476334      12.43113856      12.02906398
Pd       4.09508699      12.40463693      11.97312066
Pd       6.86816975      12.39901143      11.97280504
Pd       9.63028672      12.36702810      11.91406436
Pd      12.41702492      12.34027915      11.97398299
Pd      13.66215112       0.02720608      14.07233793
Pd       2.66216113       0.13148200      14.10113435
Pd       5.53965995      13.63135091      14.00177156
Pd       8.28664098      13.69250889      13.96056508
Pd      10.98748114       0.10219762      13.75445876
Pd      13.58315552       2.78846702      13.97563544
Pd       2.61500101       2.91015317      14.11205776
Pd       5.38457701       2.69290415      14.08316457
Pd       8.20657312       2.68583817      13.94910232
Pd      10.89104414       2.74811996      13.92571095
Pd       0.08080346       5.51900543      13.94581293
Pd       2.78542545       5.60497024      14.02225749
Pd       5.50635079       5.44556489      14.09106390
Pd       8.34970574       5.45729219      13.97931317
Pd      11.06824442       5.43874283      13.96091777
Pd       0.08036230       8.28702161      13.93195150
Pd       2.84048559       8.32815490      13.96098764
Pd       5.61155195       8.24042256      13.95475399
Pd       8.32969291       8.23864492      13.99947144
Pd      11.05226702       8.25675908      13.92941465
Pd      13.64403550      10.97917365      14.28866579
Pd       2.78981082      11.11508853      13.98686902
Pd       5.51281682      10.92803154      13.90023539
Pd       8.23409995      10.94826002      13.99764471
Pd      10.96861694      10.96662961      13.87711247
Pd      12.57803276       6.69350518      16.07271988
Pd       9.12779892       9.55813937      16.59862439
Pd       2.05561656      12.75107867      16.58714663
Pd       1.63343043       7.17265951      16.26381199
Pd      12.12546828       9.48763440      16.20248119
Pd       9.42038377       1.39580730      16.14484957
Pd       4.87723060       0.84379330      17.10909873
Pd       5.98840481       9.86314063      16.44761057
Pd       4.56004569      12.07009237      16.10781669
Pd      11.14440757      12.62044270      15.98688542
Pd       1.12922580       4.46465738      16.31676745
Pd       3.97595335       4.41648022      16.33901149
Pd      11.40688629       3.32971465      16.60674705
Pd       2.98950936       9.77269871      16.37881562
Pd       7.19300968       6.91281035      16.29010153
Pd       7.11900256      12.98518816      16.48033825
Pd       9.83907750       7.00796391      15.98515076
Pd       7.34962310       3.17265702      16.51406072
Pd       1.03518984       1.50965124      16.01971350
Pd       4.38253746       7.07174335      15.98857281
O        9.38019401       3.15041610      17.00938441
O       10.71680752      10.70450155      16.71593912
O       13.07971368      12.51557504      15.59765556
O       11.94927461       1.57693523      17.47057574
O       10.98159515       0.65610722      17.43751742
O        4.48521019       8.75725700      17.10499541
O        4.22756429       1.07783166      15.05367205
O        2.15511134       1.58619347      17.67463923
O        9.17397987      13.19257799      15.85700337
O        1.57549957      11.01195839      15.70737518
O        2.95339880       0.42537312      17.68665959
O        2.57902243       5.60335574      17.05941955
O        7.14409649       5.07704311      15.59082272
O        7.47541655       8.61820672      17.15970440
O        5.40637197       3.10627835      16.11140609
O       13.39281423       3.19739448      16.01494066
O       11.17071678       5.29288945      16.05215572
O       13.73778628       8.31391852      16.01570918
O        6.83482399       1.09570482      17.17908443
O        7.53687433      11.07111950      16.00340289
