115
Lattice="13.75323 0.0 0.0 0.0 13.75323 0.0 0.0 0.0 23.89" Properties=species:S:1:pos:R:3 entry_id=10 rank=7 energy=-572.5131225585938 parent_id=9 pbc="T T F"
Pd       0.00000000       0.00000000      10.00000000
Pd       2.75064538       0.00000000      10.00000000
Pd       5.50129076       0.00000000      10.00000000
Pd       8.25193614       0.00000000      10.00000000
Pd      11.00258152       0.00000000      10.00000000
Pd       0.00000000       2.75064538      10.00000000
Pd       2.75064538       2.75064538      10.00000000
Pd       5.50129076       2.75064538      10.00000000
Pd       8.25193614       2.75064538      10.00000000
Pd      11.00258152       2.75064538      10.00000000
Pd       0.00000000       5.50129076      10.00000000
Pd       2.75064538       5.50129076      10.00000000
Pd       5.50129076       5.50129076      10.00000000
Pd       8.25193614       5.50129076      10.00000000
Pd      11.00258152       5.50129076      10.00000000
Pd       0.00000000       8.25193614      10.00000000
Pd       2.75064538       8.25193614      10.00000000
Pd       5.50129076       8.25193614      10.00000000
Pd       8.25193614       8.25193614      10.00000000
Pd      11.00258152       8.25193614      10.00000000
Pd       0.00000000      11.00258152      10.00000000
Pd       2.75064538      11.00258152      10.00000000
Pd       5.50129076      11.00258152      10.00000000
Pd       8.25193614      11.00258152      10.00000000
Pd      11.00258152      11.00258152      10.00000000
Pd       1.36124323       1.39417204      12.04024105
Pd       4.09452961       1.40814821      12.00819110
Pd       6.83137488       1.38251522      11.98990499
Pd       9.57512057       1.39592898      11.89594876
Pd      12.38684272       1.37174114      11.92044161
Pd       1.38244722       4.11658841      11.99030176
Pd       4.09630738       4.13209311      12.02721801
Pd       6.82607119       4.11781394      11.99577404
Pd       9.56728621       4.13975942      11.94281254
Pd      12.36578195       4.13265160      11.93417299
Pd       1.37110082       6.89256210      11.94010419
Pd       4.13935064       6.87026939      11.96482277
Pd       6.87097415       6.85831372      11.95140951
Pd       9.64205429       6.82915781      11.94515418
Pd      12.39111484       6.85622887      11.94896407
Pd       1.37824363       9.65813134      11.98097068
Pd       4.11777592       9.66324146      11.95099537
Pd       6.89476706       9.64088005      11.95142944
Pd       9.64982872       9.59779534      11.89439304
Pd      12.42487279       9.60955999      11.94161946
Pd       1.36005291      12.41902023      11.99413308
Pd       4.10330722      12.41610140      11.97453889
Pd       6.86816975      12.39901143      11.97280504
Pd       9.63028672      12.36702810      11.91406436
Pd      12.39995408      12.35613758      11.99772489
Pd       0.03644499       0.03774597      14.07101996
Pd       2.79956776       0.07096920      14.08385039
Pd       5.50820667      13.73748836      14.00515525
Pd       8.27350325       0.02229393      13.89441793
Pd      11.00807782       0.02745240      13.88840580
Pd      13.63065291       2.76885488      13.99016825
Pd       2.64465501       2.79106225      14.11696053
Pd       5.46111227       2.68946134      14.04888713
Pd       8.24493825       2.73729566      13.98357725
Pd      10.91493380       2.69939063      13.90764935
Pd       0.02879326       5.51651509      13.92728887
Pd       2.72339102       5.57274833      14.02564979
Pd       5.42781292       5.47064562      14.08350710
Pd       8.29217487       5.49463309      13.99291340
Pd      11.00958595       5.41822217      13.95697837
Pd       0.07635186       8.26127713      13.97120482
Pd       2.84802424       8.30193438      13.93549612
Pd       5.60099602       8.27668383      13.96420839
Pd       8.31314240       8.27731479      13.96732126
Pd      11.04886100       8.24828301      13.91071573
Pd      13.65770515      11.00242813      14.08680493
Pd       2.78026973      11.08884381      13.95480889
Pd       5.48673697      10.97613029      13.89404344
Pd       8.18310306      11.00492527      13.97755422
Pd      10.90404757      11.00571961      13.92495534
Pd      12.49722084       6.72144451      16.08786103
Pd       9.15882528       9.72922682      16.42433894
Pd       1.85366298      12.54848657      16.51888432
Pd       1.64530636       7.24236430      16.21951439
Pd      12.16237260       9.63178093      16.06492795
Pd       9.24302302       1.36322694      16.38159595
Pd       4.03347853       1.30327493      16.65081271
Pd       5.99147178       9.93909027      16.43649697
Pd       4.40756777      12.15473847      16.00189389
Pd      12.13795259      12.50518533      16.12119410
Pd       0.83004248       4.69068174      16.42017645
Pd       3.92867049       4.42279454      16.33860767
Pd      11.19823331       3.38955025      16.60372788
Pd       2.95203867       9.75347922      16.32306321
Pd       7.15164998       7.07019389      16.29000972
Pd       7.05421970      13.23770488      16.38644492
Pd       9.77770791       7.09832950      15.97085456
Pd       7.39184665       3.34566268      16.47470100
Pd       0.41113196       1.98364121      16.94536381
Pd       4.37352947       7.08757651      16.01371788
O        9.27553087       3.16727199      17.17198627
O       10.73413167      11.00588213      16.02998213
O        0.03600897      13.57556773      16.11485310
O       11.92947891       1.63853460      17.49922628
O       11.16654180       0.54694138      17.14867094
O        4.48890907       8.81950359      17.08211637
O        2.66293419       2.65413265      16.18168664
O        1.51135213       1.01671313      18.25629558
O        8.91520398      13.31843227      15.75464684
O        1.43147142      10.85833981      15.59041521
O        2.53259855       0.27113026      17.68058082
O        2.47206162       5.60515493      17.05816057
O        6.95664896       5.24893422      15.56377627
O        7.56649838       8.75939721      17.15764837
O        5.40768815       2.97821841      16.09014858
O       13.13658251       3.38659782      15.93519836
O       11.03517544       5.36340588      16.04669841
O       13.66634553       8.32238819      16.10086054
O        5.27196441      13.57502963      17.16058222
O        7.54210718      11.11988712      15.99263822
