115
Lattice="13.75323 0.0 0.0 0.0 13.75323 0.0 0.0 0.0 23.89" Properties=species:S:1:pos:R:3 entry_id=0 rank=28 energy=-568.3948364257812 parent_id=-1 pbc="T T F"
Pd       0.00000000       0.00000000      10.00000000
Pd       2.75064538       0.00000000      10.00000000
Pd       5.50129076       0.00000000      10.00000000
Pd       8.25193614       0.00000000      10.00000000
Pd      11.00258152       0.00000000      10.00000000
Pd       0.00000000       2.75064538      10.00000000
Pd       2.75064538       2.75064538      10.00000000
Pd       5.50129076       2.75064538      10.00000000
Pd       8.25193614       2.75064538      10.00000000
Pd      11.00258152       2.75064538      10.00000000
Pd       0.00000000       5.50129076      10.00000000
Pd       2.75064538       5.50129076      10.00000000
Pd       5.50129076       5.50129076      10.00000000
Pd       8.25193614       5.50129076      10.00000000
Pd      11.00258152       5.50129076      10.00000000
Pd       0.00000000       8.25193614      10.00000000
Pd       2.75064538       8.25193614      10.00000000
Pd       5.50129076       8.25193614      10.00000000
Pd       8.25193614       8.25193614      10.00000000
Pd      11.00258152       8.25193614      10.00000000
Pd       0.00000000      11.00258152      10.00000000
Pd       2.75064538      11.00258152      10.00000000
Pd       5.50129076      11.00258152      10.00000000
Pd       8.25193614      11.00258152      10.00000000
Pd      11.00258152      11.00258152      10.00000000
Pd       1.34624637       1.38084505      12.08140328
Pd       4.09710797       1.39052461      12.02479185
Pd       6.82981885       1.36955224      12.02877831
Pd       9.57512057       1.39592898      11.89594876
Pd      12.38684272       1.37174114      11.92044161
Pd       1.36477184       4.11653845      11.98603983
Pd       4.10062871       4.12336097      12.03937405
Pd       6.80964733       4.10127660      12.01947987
Pd       9.56728621       4.13975942      11.94281254
Pd      12.36578195       4.13265160      11.93417299
Pd       1.37110082       6.89256210      11.94010419
Pd       4.13935064       6.87026939      11.96482277
Pd       6.87097415       6.85831372      11.95140951
Pd       9.64205429       6.82915781      11.94515418
Pd      12.39111484       6.85622887      11.94896407
Pd       1.35620879       9.70034394      11.99805351
Pd       4.11777592       9.66324146      11.95099537
Pd       6.89476706       9.64088005      11.95142944
Pd       9.64982872       9.59779534      11.89439304
Pd      12.42487279       9.60955999      11.94161946
Pd       1.38044415      12.43192686      12.05374777
Pd       4.10023154      12.39283493      12.00408406
Pd       6.86816975      12.39901143      11.97280504
Pd       9.63028672      12.36702810      11.91406436
Pd      12.44377097      12.34106687      11.97882626
Pd      13.68382728      13.72509636      14.13497550
Pd       2.74104758       0.13690642      14.18796908
Pd       5.57275155      13.58410475      14.03503765
Pd       8.32210425       0.10874650      14.02898704
Pd      11.00945064       0.06539768      13.76260278
Pd      13.56160042       2.74996743      13.99054695
Pd       2.60935540       2.89247834      14.11902770
Pd       5.38704046       2.66349630      14.17474578
Pd       8.19635167       2.74740100      13.98468147
Pd      10.87232489       2.71372077      13.87797250
Pd       0.02065223       5.52365927      13.94648725
Pd       2.72279909       5.58686695      14.00784463
Pd       5.45644181       5.48202126      14.06965834
Pd       8.27768351       5.48392216      14.03245451
Pd      11.00184651       5.39660944      13.97230412
Pd       0.04971815       8.32457666      13.97807473
Pd       2.75359937       8.29351753      13.88783156
Pd       5.49570254       8.26291634      13.94878357
Pd       8.40018782       8.22067757      13.82455722
Pd      11.08214471       8.19516580      13.93714722
Pd      13.58925671      10.96821741      14.50063490
Pd       2.74689045      11.08185735      14.01332548
Pd       5.55693206      10.90584195      13.95549995
Pd       8.34037651      11.01505104      13.92444190
Pd      11.03613153      10.88290918      13.82899357
Pd      12.43757827       6.59288089      16.10454170
Pd       8.74022541       9.62199358      16.23413520
Pd       2.03065075      12.72898404      16.64118949
Pd       1.41924164       7.01588228      16.25547618
Pd      11.87895011       9.39105761      16.30172414
Pd       8.32079293       1.37676575      16.95468083
Pd       4.98991969       0.37832995      17.18451607
Pd       5.65051806       9.65136398      17.05433707
Pd       4.39384818      11.78169613      16.13855130
Pd      10.86720007      12.42525158      15.91206057
Pd       0.84945412       4.28629640      16.30384088
Pd       3.88140427       4.40497775      16.31828463
Pd      11.15785221       3.15621749      16.54907086
Pd       2.99012242       9.51110276      16.27592966
Pd       7.25968818       7.14728225      16.87910867
Pd       6.97185299      11.97813063      16.16841861
Pd       9.73204994       6.98603720      15.97462521
Pd       7.44863116       3.72299348      16.42951226
Pd       1.07458855       1.49122197      16.04520167
Pd       4.09055085       7.08729490      15.90612314
O        9.23782364       3.11398328      17.10112341
O       10.39577494      10.53341616      16.84740735
O       12.86566579      12.54157445      15.65829107
O       11.40039947       1.29084857      17.22750345
O       10.36256263       0.44716387      17.13445698
O        5.25440367       7.65419933      17.37629687
O        4.40730491       1.01616056      15.22007196
O        2.39084869       1.64076694      17.53602380
O        8.88604350      12.46473315      15.43789598
O        1.53672584      10.98904946      15.78940802
O        3.00992017       0.38459627      17.70398340
O        2.31056363       5.38259835      17.01126855
O        6.98073806       5.58700605      15.66940461
O        7.53891114       8.89924148      17.78025538
O        5.52326858       3.35575770      16.08826159
O       13.14556103       2.98277848      16.01059638
O       11.03825573       5.17653387      16.05771734
O       13.54549723       8.25306705      16.06253186
O        6.93518610       0.02465912      17.15679496
O        7.07533325       8.65270529      15.26882564
