115
Lattice="13.75323 0.0 0.0 0.0 13.75323 0.0 0.0 0.0 23.89" Properties=species:S:1:pos:R:3 entry_id=12 rank=23 energy=-571.54931640625 parent_id=10 pbc="T T F"
Pd       0.00000000       0.00000000      10.00000000
Pd       2.75064538       0.00000000      10.00000000
Pd       5.50129076       0.00000000      10.00000000
Pd       8.25193614       0.00000000      10.00000000
Pd      11.00258152       0.00000000      10.00000000
Pd       0.00000000       2.75064538      10.00000000
Pd       2.75064538       2.75064538      10.00000000
Pd       5.50129076       2.75064538      10.00000000
Pd       8.25193614       2.75064538      10.00000000
Pd      11.00258152       2.75064538      10.00000000
Pd       0.00000000       5.50129076      10.00000000
Pd       2.75064538       5.50129076      10.00000000
Pd       5.50129076       5.50129076      10.00000000
Pd       8.25193614       5.50129076      10.00000000
Pd      11.00258152       5.50129076      10.00000000
Pd       0.00000000       8.25193614      10.00000000
Pd       2.75064538       8.25193614      10.00000000
Pd       5.50129076       8.25193614      10.00000000
Pd       8.25193614       8.25193614      10.00000000
Pd      11.00258152       8.25193614      10.00000000
Pd       0.00000000      11.00258152      10.00000000
Pd       2.75064538      11.00258152      10.00000000
Pd       5.50129076      11.00258152      10.00000000
Pd       8.25193614      11.00258152      10.00000000
Pd      11.00258152      11.00258152      10.00000000
Pd       1.36519841       1.41463543      12.01641086
Pd       4.10542720       1.41670380      12.03284674
Pd       6.80306129       1.39201848      12.03089560
Pd       9.57512057       1.39592898      11.89594876
Pd      12.38684272       1.37174114      11.92044161
Pd       1.38674830       4.15182004      11.99087719
Pd       4.10984499       4.11241913      12.02940429
Pd       6.81829292       4.10181519      11.98614197
Pd       9.56728621       4.13975942      11.94281254
Pd      12.36578195       4.13265160      11.93417299
Pd       1.37110082       6.89256210      11.94010419
Pd       4.13935064       6.87026939      11.96482277
Pd       6.87097415       6.85831372      11.95140951
Pd       9.64205429       6.82915781      11.94515418
Pd      12.39111484       6.85622887      11.94896407
Pd       1.38010135       9.67578441      11.97284296
Pd       4.11777592       9.66324146      11.95099537
Pd       6.89476706       9.64088005      11.95142944
Pd       9.64982872       9.59779534      11.89439304
Pd      12.42487279       9.60955999      11.94161946
Pd       1.36763922      12.42366677      12.00375294
Pd       4.09184806      12.42306436      11.99358092
Pd       6.86816975      12.39901143      11.97280504
Pd       9.63028672      12.36702810      11.91406436
Pd      12.40015705      12.34953142      11.99327513
Pd      13.69837837      13.74667242      14.01787768
Pd       2.67920199       0.07083094      14.08181765
Pd       5.41609651      13.71155199      14.01231232
Pd       8.20729484       0.03675210      13.90853267
Pd      10.96753583      13.75156284      13.90058506
Pd      13.66622139       2.84943093      13.95297310
Pd       2.77579577       2.91785652      14.10307891
Pd       6.54993201       1.71698800      15.60370619
Pd       8.28248178       2.79153510      13.91877297
Pd      10.96507496       2.68641070      13.93501389
Pd       0.05660845       5.56404392      14.02645045
Pd       2.75409071       5.63836933      13.98286109
Pd       5.42042685       5.40106376      14.01051696
Pd       8.32272667       5.55047694      13.90299059
Pd      11.07055118       5.40670936      13.93937763
Pd      13.74701905       8.26492110      13.92587740
Pd       2.82425486       8.32888807      13.89690218
Pd       5.55637202       8.20991588      14.01759728
Pd       8.30712665       8.29539527      13.99438236
Pd      11.03208973       8.21776583      13.97679625
Pd      13.71602563      10.96155336      14.10929827
Pd       2.80868372      11.10218553      13.98397031
Pd       5.52617746      10.92746178      13.88909162
Pd       8.23378955      11.00746417      13.97330307
Pd      10.96360128      10.96110411      13.90248188
Pd      12.54701184       6.79590461      16.27177674
Pd       9.28823468       9.61227575      16.47808534
Pd       1.94793867      12.37375289      16.75850781
Pd       1.47875521       7.29618500      15.97281955
Pd      12.32487350       9.52032826      16.19370524
Pd       9.41511636       1.38351235      16.24090348
Pd       4.00993202       0.80297770      16.51350055
Pd       6.12040469       9.80474015      16.40469006
Pd       4.49447272      11.92321967      16.07970553
Pd      12.21678397      12.34684891      16.10131177
Pd       1.69867131       4.51692562      16.24182424
Pd       4.65772431       3.57097983      15.96863951
Pd      11.65963692       3.44476979      16.58813428
Pd       2.99803723       9.64168553      16.30852987
Pd       7.15888745       7.15842957      16.31269783
Pd       7.12130925      13.04777002      16.42004563
Pd       9.74896475       6.86076047      15.98590599
Pd       8.24641865       4.20020785      16.35169824
Pd       0.33301854       1.55281508      16.35152446
Pd       4.19770662       6.91392678      16.13782723
O        9.75187421       3.13814545      17.09216126
O       10.83992945      10.85091489      15.96897333
O        0.18254943      13.33813125      16.21372675
O       12.22498491       1.58112396      17.24148195
O       11.31276994       0.54431219      16.91345727
O        4.56763378       8.70921510      16.99019561
O        2.34462038       1.56502354      15.61417342
O        2.72226333      13.61235873      19.22746056
O        8.97619247      13.30587656      15.72944172
O        1.50413066      10.79512481      15.63934947
O        2.43762761       0.14094944      17.99572236
O        3.52240767       5.08049929      16.67980148
O        6.93447549       5.42302097      15.44706535
O        7.69687239       8.73181358      17.30500406
O        6.46553418       3.25030899      16.85238792
O       13.70843339       3.52367769      16.05481220
O       11.26189468       5.32989455      16.01111410
O       13.68994224       8.25958239      16.86941475
O        5.35541689      13.29514238      17.30698203
O        7.69561540      10.99462961      16.01937946
