115
Lattice="13.75323 0.0 0.0 0.0 13.75323 0.0 0.0 0.0 23.89" Properties=species:S:1:pos:R:3 entry_id=5 rank=5 energy=-572.515869140625 parent_id=4 pbc="T T F"
Pd       0.00000000       0.00000000      10.00000000
Pd       2.75064538       0.00000000      10.00000000
Pd       5.50129076       0.00000000      10.00000000
Pd       8.25193614       0.00000000      10.00000000
Pd      11.00258152       0.00000000      10.00000000
Pd       0.00000000       2.75064538      10.00000000
Pd       2.75064538       2.75064538      10.00000000
Pd       5.50129076       2.75064538      10.00000000
Pd       8.25193614       2.75064538      10.00000000
Pd      11.00258152       2.75064538      10.00000000
Pd       0.00000000       5.50129076      10.00000000
Pd       2.75064538       5.50129076      10.00000000
Pd       5.50129076       5.50129076      10.00000000
Pd       8.25193614       5.50129076      10.00000000
Pd      11.00258152       5.50129076      10.00000000
Pd       0.00000000       8.25193614      10.00000000
Pd       2.75064538       8.25193614      10.00000000
Pd       5.50129076       8.25193614      10.00000000
Pd       8.25193614       8.25193614      10.00000000
Pd      11.00258152       8.25193614      10.00000000
Pd       0.00000000      11.00258152      10.00000000
Pd       2.75064538      11.00258152      10.00000000
Pd       5.50129076      11.00258152      10.00000000
Pd       8.25193614      11.00258152      10.00000000
Pd      11.00258152      11.00258152      10.00000000
Pd       1.36177507       1.40171788      12.03904464
Pd       4.09125008       1.41075452      12.00931619
Pd       6.82741191       1.38597398      11.98744887
Pd       9.57512057       1.39592898      11.89594876
Pd      12.38684272       1.37174114      11.92044161
Pd       1.38585056       4.12187905      11.99098017
Pd       4.09638674       4.13157037      12.03562958
Pd       6.82410294       4.11979094      11.99776429
Pd       9.56728621       4.13975942      11.94281254
Pd      12.36578195       4.13265160      11.93417299
Pd       1.37110082       6.89256210      11.94010419
Pd       4.13935064       6.87026939      11.96482277
Pd       6.87097415       6.85831372      11.95140951
Pd       9.64205429       6.82915781      11.94515418
Pd      12.39111484       6.85622887      11.94896407
Pd       1.38036812       9.66059177      11.97490781
Pd       4.11777592       9.66324146      11.95099537
Pd       6.89476706       9.64088005      11.95142944
Pd       9.64982872       9.59779534      11.89439304
Pd      12.42487279       9.60955999      11.94161946
Pd       1.35661529      12.42439888      11.99001584
Pd       4.10279571      12.41843681      11.96978205
Pd       6.86816975      12.39901143      11.97280504
Pd       9.63028672      12.36702810      11.91406436
Pd      12.39406411      12.35755687      11.99380210
Pd       0.03349817       0.05137179      14.05935749
Pd       2.79678845       0.07904050      14.08158354
Pd       5.50610198      13.73885277      13.99813565
Pd       8.26997082       0.02239052      13.89267362
Pd      11.00438219       0.03092409      13.88941698
Pd      13.62853368       2.78213451      13.98874324
Pd       2.63500576       2.80157976      14.13274422
Pd       5.44919564       2.68887182      14.05714740
Pd       8.24197405       2.73761229      13.97376134
Pd      10.91772845       2.70202418      13.91429759
Pd       0.02427973       5.52993318      13.92427935
Pd       2.71867700       5.58401665      14.02438468
Pd       5.42868072       5.47428868      14.08932381
Pd       8.29925340       5.49901734      13.99235298
Pd      11.01436860       5.42277784      13.95825327
Pd       0.08164282       8.27237165      13.96136591
Pd       2.84754091       8.30856936      13.93635061
Pd       5.60057728       8.27314062      13.97721289
Pd       8.31448761       8.28617226      13.96096975
Pd      11.05377557       8.25602507      13.90750065
Pd      13.64314510      11.01073772      14.07517037
Pd       2.77712789      11.09797907      13.94247296
Pd       5.47967519      10.97632906      13.89107055
Pd       8.17035517      11.01413570      13.98863440
Pd      10.88895454      11.01298639      13.92526510
Pd      12.50104632       6.78267513      16.07748434
Pd       9.13699352       9.76048303      16.42826979
Pd       1.83684451      12.55529918      16.52060764
Pd       1.62423797       7.33427900      16.27634165
Pd      12.13439912       9.67358809      16.07174345
Pd       9.29571448       1.41729796      16.35276325
Pd       3.98278139       1.30706192      16.67590191
Pd       5.97805421       9.97016563      16.43785830
Pd       4.39668502      12.17565586      15.99328571
Pd      12.12672562      12.52264874      16.12126389
Pd       0.92381388       4.77705849      16.39707914
Pd       3.93881158       4.42600282      16.31906985
Pd      11.25417200       3.45087464      16.58830702
Pd       2.94602267       9.78615613      16.31998048
Pd       7.14238504       7.08816672      16.27832428
Pd       7.05088984      13.30170765      16.38695085
Pd       9.76995889       7.12660805      15.96561886
Pd       7.39048173       3.34429448      16.45735617
Pd       0.44771453       2.04216146      16.95410292
Pd       4.34649614       7.09765157      16.02257348
O        9.31153760       3.22575997      17.11911798
O       10.70405543      11.04394607      16.03217857
O        0.03520792      13.56021524      16.08803890
O       12.00881192       1.70600815      17.47186770
O       11.22876122       0.61217163      17.12312685
O        4.47758948       8.84405713      17.07630744
O        2.55621080       2.61748549      16.20821376
O        1.46626873       0.99705615      18.27724035
O        8.91612685      13.36809510      15.76376805
O        1.42446489      10.87814129      15.56693367
O        2.50108236       0.25833029      17.70998468
O        2.56701054       5.72013529      17.04178938
O        6.96123291       5.26116403      15.55894155
O        7.54699837       8.78131307      17.14888687
O        5.38128126       2.95497924      16.09925419
O       13.21494892       3.46774946      15.93185973
O       11.05248444       5.41510417      16.04741967
O       13.66027030       8.39153021      16.08377589
O        5.25637631      13.59317961      17.15624679
O        7.52418016      11.16112923      16.00347106
