115
Lattice="13.75323 0.0 0.0 0.0 13.75323 0.0 0.0 0.0 23.89" Properties=species:S:1:pos:R:3 entry_id=26 rank=18 energy=-572.03271484375 parent_id=25 pbc="T T F"
Pd       0.00000000       0.00000000      10.00000000
Pd       2.75064538       0.00000000      10.00000000
Pd       5.50129076       0.00000000      10.00000000
Pd       8.25193614       0.00000000      10.00000000
Pd      11.00258152       0.00000000      10.00000000
Pd       0.00000000       2.75064538      10.00000000
Pd       2.75064538       2.75064538      10.00000000
Pd       5.50129076       2.75064538      10.00000000
Pd       8.25193614       2.75064538      10.00000000
Pd      11.00258152       2.75064538      10.00000000
Pd       0.00000000       5.50129076      10.00000000
Pd       2.75064538       5.50129076      10.00000000
Pd       5.50129076       5.50129076      10.00000000
Pd       8.25193614       5.50129076      10.00000000
Pd      11.00258152       5.50129076      10.00000000
Pd       0.00000000       8.25193614      10.00000000
Pd       2.75064538       8.25193614      10.00000000
Pd       5.50129076       8.25193614      10.00000000
Pd       8.25193614       8.25193614      10.00000000
Pd      11.00258152       8.25193614      10.00000000
Pd       0.00000000      11.00258152      10.00000000
Pd       2.75064538      11.00258152      10.00000000
Pd       5.50129076      11.00258152      10.00000000
Pd       8.25193614      11.00258152      10.00000000
Pd      11.00258152      11.00258152      10.00000000
Pd       1.32845995       1.38298016      12.08058359
Pd       4.08125808       1.39657180      12.00822979
Pd       6.84163197       1.36328320      12.01669764
Pd       9.57512057       1.39592898      11.89594876
Pd      12.38684272       1.37174114      11.92044161
Pd       1.36341364       4.10878801      11.99178154
Pd       4.07931521       4.12787531      12.01188546
Pd       6.82456266       4.10709341      11.99200067
Pd       9.56728621       4.13975942      11.94281254
Pd      12.36578195       4.13265160      11.93417299
Pd       1.37110082       6.89256210      11.94010419
Pd       4.13935064       6.87026939      11.96482277
Pd       6.87097415       6.85831372      11.95140951
Pd       9.64205429       6.82915781      11.94515418
Pd      12.39111484       6.85622887      11.94896407
Pd       1.39520960       9.65299853      11.95724924
Pd       4.11777592       9.66324146      11.95099537
Pd       6.89476706       9.64088005      11.95142944
Pd       9.64982872       9.59779534      11.89439304
Pd      12.42487279       9.60955999      11.94161946
Pd       1.37569094      12.44350390      12.00935994
Pd       4.11264017      12.41560533      11.97691297
Pd       6.86816975      12.39901143      11.97280504
Pd       9.63028672      12.36702810      11.91406436
Pd      12.43643602      12.37513718      11.96825100
Pd      13.71500535      13.73761369      14.27332920
Pd       2.77045545       0.07344827      14.09476962
Pd       5.51909034      13.73676819      14.01150732
Pd       8.32014088      13.73849870      14.04585604
Pd      11.02550091       0.04761396      13.80987064
Pd      13.58023146       2.74342818      14.01673642
Pd       2.60343898       2.79986209      14.09841806
Pd       5.42026328       2.70035474      14.02714954
Pd       8.20265762       2.71537513      14.00863576
Pd      10.87058763       2.71390114      13.93125512
Pd       0.00258750       5.50303034      13.93565927
Pd       2.68665649       5.57433561      14.01987014
Pd       5.37805638       5.49247845      14.02407830
Pd       8.25927104       5.48327822      14.01084465
Pd      10.97369740       5.44694050      13.90018971
Pd       0.07261507       8.25128746      13.96039051
Pd       2.83839762       8.30126767      13.92635425
Pd       5.60349961       8.30080522      13.94304993
Pd       8.34040947       8.24362091      13.92760482
Pd      11.03436235       8.24390845      14.01412082
Pd      13.75203075      11.00360634      13.98172926
Pd       2.80464958      11.08906926      13.95644698
Pd       5.51360882      10.99541925      13.90700083
Pd       8.23265672      10.97245314      13.95970400
Pd      10.98993760      11.03194462      13.84912517
Pd      12.48239238       6.79290931      16.06445794
Pd       9.57833202       9.82873655      16.31610663
Pd       1.76273919      12.54337116      16.43790646
Pd       1.63522034       7.18068144      16.17700711
Pd      12.35909170       9.78551192      16.00607619
Pd       9.00680050       1.59041114      16.49245083
Pd       3.99613463       1.32847741      16.57948593
Pd       6.06802482       9.85180191      16.38432633
Pd       4.35601637      12.15592817      16.01984018
Pd      11.11087738      13.22603930      16.40612756
Pd       0.68170830       4.60854501      16.44656039
Pd       3.82306349       4.45588967      16.35724073
Pd      11.03799549       3.57450803      16.63866495
Pd       2.93392579       9.74678743      16.30606316
Pd       7.07767496       7.29725854      16.19733536
Pd       6.94978942      12.78418912      16.38471853
Pd       9.72714707       7.03290236      16.33944284
Pd       7.24502811       3.54570118      16.44986872
Pd       0.17739460       1.82803746      16.81891728
Pd       4.34716231       7.09827546      15.97739490
O        9.09845256       3.43783569      17.18970650
O       10.97878355      11.22281201      15.90162542
O       13.09375731      13.63053619      16.24236771
O       11.63856836       2.01095092      17.79720333
O       10.72066137       0.99906511      17.72900840
O        4.50181379       8.84299225      17.03082138
O        2.66693948       2.70663969      16.14360148
O        1.37657661       0.96684789      18.12038410
O        8.96311712      13.40884239      16.05229038
O        1.37720334      10.81951956      15.59726253
O        2.44138251       0.27518447      17.56909318
O        2.30786646       5.52615735      17.09005581
O        6.80960204       5.39941517      15.54385125
O        8.51094104       8.38305784      17.10230499
O        5.32547330       3.06109165      16.05611837
O       12.95308749       3.37364642      15.94572287
O       10.96215178       5.48921540      15.95579759
O       13.70097858       8.33965074      16.13103596
O        5.27626244      13.63393580      17.07297464
O        7.74820015      10.91191423      16.00799653
