115
Lattice="13.75323 0.0 0.0 0.0 13.75323 0.0 0.0 0.0 23.89" Properties=species:S:1:pos:R:3 entry_id=9 rank=3 energy=-572.5198974609375 parent_id=8 pbc="T T F"
Pd       0.00000000       0.00000000      10.00000000
Pd       2.75064538       0.00000000      10.00000000
Pd       5.50129076       0.00000000      10.00000000
Pd       8.25193614       0.00000000      10.00000000
Pd      11.00258152       0.00000000      10.00000000
Pd       0.00000000       2.75064538      10.00000000
Pd       2.75064538       2.75064538      10.00000000
Pd       5.50129076       2.75064538      10.00000000
Pd       8.25193614       2.75064538      10.00000000
Pd      11.00258152       2.75064538      10.00000000
Pd       0.00000000       5.50129076      10.00000000
Pd       2.75064538       5.50129076      10.00000000
Pd       5.50129076       5.50129076      10.00000000
Pd       8.25193614       5.50129076      10.00000000
Pd      11.00258152       5.50129076      10.00000000
Pd       0.00000000       8.25193614      10.00000000
Pd       2.75064538       8.25193614      10.00000000
Pd       5.50129076       8.25193614      10.00000000
Pd       8.25193614       8.25193614      10.00000000
Pd      11.00258152       8.25193614      10.00000000
Pd       0.00000000      11.00258152      10.00000000
Pd       2.75064538      11.00258152      10.00000000
Pd       5.50129076      11.00258152      10.00000000
Pd       8.25193614      11.00258152      10.00000000
Pd      11.00258152      11.00258152      10.00000000
Pd       1.35840170       1.39707000      12.04135041
Pd       4.08659871       1.40763292      12.00960372
Pd       6.82446202       1.38415397      11.98625019
Pd       9.57512057       1.39592898      11.89594876
Pd      12.38684272       1.37174114      11.92044161
Pd       1.38288940       4.11578492      11.99115358
Pd       4.09066097       4.12995107      12.03404957
Pd       6.82002767       4.11966489      11.99481324
Pd       9.56728621       4.13975942      11.94281254
Pd      12.36578195       4.13265160      11.93417299
Pd       1.37110082       6.89256210      11.94010419
Pd       4.13935064       6.87026939      11.96482277
Pd       6.87097415       6.85831372      11.95140951
Pd       9.64205429       6.82915781      11.94515418
Pd      12.39111484       6.85622887      11.94896407
Pd       1.38106540       9.65979349      11.97550936
Pd       4.11777592       9.66324146      11.95099537
Pd       6.89476706       9.64088005      11.95142944
Pd       9.64982872       9.59779534      11.89439304
Pd      12.42487279       9.60955999      11.94161946
Pd       1.36222278      12.42214282      11.99235913
Pd       4.10552471      12.41545366      11.97407709
Pd       6.86816975      12.39901143      11.97280504
Pd       9.63028672      12.36702810      11.91406436
Pd      12.39722658      12.35702754      11.99491703
Pd       0.03361421       0.04152902      14.06422007
Pd       2.79465733       0.07236685      14.08823116
Pd       5.50193058      13.73234315      14.00337620
Pd       8.26637514       0.02151805      13.89172352
Pd      11.00426975       0.03026695      13.88991066
Pd      13.61966787       2.77256503      13.99102152
Pd       2.62669731       2.79304739      14.13439059
Pd       5.44320251       2.68389674      14.05178924
Pd       8.23446697       2.73573390      13.97048079
Pd      10.90878678       2.70173941      13.91449033
Pd       0.02487222       5.52051330      13.92103327
Pd       2.71637231       5.57560278      14.02719991
Pd       5.42284022       5.46629572      14.08450410
Pd       8.29588162       5.49490890      13.98870502
Pd      11.01198253       5.42095827      13.95863993
Pd       0.08180109       8.26446703      13.96312202
Pd       2.84961442       8.30130938      13.93531537
Pd       5.60354161       8.26887078      13.96973058
Pd       8.31707283       8.27950155      13.96317668
Pd      11.05484160       8.25418723      13.90825764
Pd      13.65466945      11.00228286      14.07394609
Pd       2.78321622      11.08977545      13.94898094
Pd       5.48761581      10.97054795      13.89486493
Pd       8.17992796      11.00693736      13.98329089
Pd      10.89951558      11.00997722      13.92268377
Pd      12.51477759       6.74802057      16.08290069
Pd       9.15655685       9.73243026      16.42806329
Pd       1.84627676      12.52974839      16.52102850
Pd       1.64918104       7.28524658      16.25348346
Pd      12.15934870       9.64563116      16.06743978
Pd       9.27317540       1.38913742      16.35232870
Pd       3.99471971       1.28924816      16.67163415
Pd       5.99591259       9.94210328      16.43744917
Pd       4.40646256      12.15024050      16.00334975
Pd      12.13566108      12.50201136      16.11546744
Pd       0.87925965       4.73429101      16.40787388
Pd       3.92506299       4.41162420      16.33157392
Pd      11.23206063       3.41591182      16.59525090
Pd       2.96391159       9.75400639      16.32302106
Pd       7.15539772       7.07059325      16.27840796
Pd       7.05146629      13.25650992      16.38567496
Pd       9.78407289       7.10497885      15.96506841
Pd       7.38469986       3.33685899      16.45811921
Pd       0.43349040       2.00307794      16.95365761
Pd       4.37051798       7.08090194      16.01834913
O        9.29422456       3.19344684      17.13154087
O       10.72358488      11.01090709      16.02756593
O        0.04260945      13.54884734      16.09710170
O       11.97749174       1.66218094      17.47801962
O       11.20379475       0.57220398      17.11825860
O        4.49714405       8.81732432      17.08202368
O        2.58107379       2.60921877      16.20677446
O        1.47499768       0.97682398      18.27426832
O        8.91477463      13.33755438      15.75513305
O        1.43731888      10.84734015      15.57398098
O        2.50840618       0.23971844      17.70441598
O        2.52062864       5.65485408      17.05877135
O        6.95680549       5.24952076      15.55289337
O        7.56743259       8.75901362      17.15574779
O        5.38241669       2.95473787      16.09331486
O       13.18390517       3.42151521      15.93781111
O       11.05693920       5.38792652      16.04978513
O       13.67919051       8.35412599      16.08800205
O        5.26311924      13.57317010      17.16034709
O        7.54373255      11.13038521      15.99994647
