115
Lattice="13.75323 0.0 0.0 0.0 13.75323 0.0 0.0 0.0 23.89" Properties=species:S:1:pos:R:3 entry_id=23 rank=2 energy=-573.00439453125 parent_id=22 pbc="T T F"
Pd       0.00000000       0.00000000      10.00000000
Pd       2.75064538       0.00000000      10.00000000
Pd       5.50129076       0.00000000      10.00000000
Pd       8.25193614       0.00000000      10.00000000
Pd      11.00258152       0.00000000      10.00000000
Pd       0.00000000       2.75064538      10.00000000
Pd       2.75064538       2.75064538      10.00000000
Pd       5.50129076       2.75064538      10.00000000
Pd       8.25193614       2.75064538      10.00000000
Pd      11.00258152       2.75064538      10.00000000
Pd       0.00000000       5.50129076      10.00000000
Pd       2.75064538       5.50129076      10.00000000
Pd       5.50129076       5.50129076      10.00000000
Pd       8.25193614       5.50129076      10.00000000
Pd      11.00258152       5.50129076      10.00000000
Pd       0.00000000       8.25193614      10.00000000
Pd       2.75064538       8.25193614      10.00000000
Pd       5.50129076       8.25193614      10.00000000
Pd       8.25193614       8.25193614      10.00000000
Pd      11.00258152       8.25193614      10.00000000
Pd       0.00000000      11.00258152      10.00000000
Pd       2.75064538      11.00258152      10.00000000
Pd       5.50129076      11.00258152      10.00000000
Pd       8.25193614      11.00258152      10.00000000
Pd      11.00258152      11.00258152      10.00000000
Pd       1.35138704       1.39040015      12.02948064
Pd       4.07165384       1.36614927      11.98412213
Pd       6.83943215       1.35680820      11.99080060
Pd       9.57512057       1.39592898      11.89594876
Pd      12.38684272       1.37174114      11.92044161
Pd       1.36497648       4.12500433      11.99278430
Pd       4.08578557       4.12349592      11.95771721
Pd       6.83926769       4.12202631      11.96091035
Pd       9.56728621       4.13975942      11.94281254
Pd      12.36578195       4.13265160      11.93417299
Pd       1.37110082       6.89256210      11.94010419
Pd       4.13935064       6.87026939      11.96482277
Pd       6.87097415       6.85831372      11.95140951
Pd       9.64205429       6.82915781      11.94515418
Pd      12.39111484       6.85622887      11.94896407
Pd       1.37945436       9.64859327      11.95847619
Pd       4.11777592       9.66324146      11.95099537
Pd       6.89476706       9.64088005      11.95142944
Pd       9.64982872       9.59779534      11.89439304
Pd      12.42487279       9.60955999      11.94161946
Pd       1.36244812      12.41214733      11.98335034
Pd       4.11635244      12.39739897      12.00172113
Pd       6.86816975      12.39901143      11.97280504
Pd       9.63028672      12.36702810      11.91406436
Pd      12.38965870      12.36575026      11.98836244
Pd       0.05123279       0.04565611      14.06090717
Pd       2.76870358       0.00190480      14.07138852
Pd       5.48208040       0.08455449      14.08674962
Pd       8.26845904      13.74975774      13.96160567
Pd      11.01222232       0.06622337      13.91118595
Pd      13.63716859       2.78751476      14.00565479
Pd       2.64527217       2.70977829      14.11278129
Pd       5.37385942       2.77946660      13.88757820
Pd       8.20428195       2.72481649      13.96409498
Pd      10.91909331       2.74518587      13.94662209
Pd       0.02476225       5.55684714      14.00318066
Pd       2.78354037       5.60518054      13.89913777
Pd       5.47173283       5.45846804      14.05391993
Pd       8.25341949       5.49660432      13.95792280
Pd      11.01562276       5.43990839      13.91797864
Pd      13.73634713       8.26126516      13.92892465
Pd       2.81134471       8.30813793      13.95107132
Pd       5.52529544       8.22984485      14.01878936
Pd       8.27978001       8.25310203      13.95100967
Pd      11.01523458       8.23010174      13.97695680
Pd      13.64784018      10.96708392      14.03774007
Pd       2.72570272      11.02179872      13.94783876
Pd       5.49421923      11.01360591      13.90424031
Pd       8.26749139      10.97985820      13.99201476
Pd      10.92766737      10.96682222      13.88792518
Pd      12.43638202       6.75963924      16.24657829
Pd       9.12312551       9.64263386      16.30318554
Pd       1.66970629      12.48599837      16.63032163
Pd       1.39187607       7.29288611      16.00880484
Pd      12.26210779       9.49615800      16.20242487
Pd       9.37667286       1.06051066      16.55517225
Pd       3.92439620       1.07450537      16.57014225
Pd       5.66038195       9.84994667      16.45863429
Pd       4.12242320      12.05676455      15.94969121
Pd      12.10425433      12.32641113      16.07178652
Pd       1.77284629       4.60837428      16.09586114
Pd       6.49189855       2.07099956      16.02222010
Pd      11.67273017       3.49091382      16.69514656
Pd       2.75054978       9.69146304      16.41747309
Pd       7.01596814       7.14144436      16.25383337
Pd       6.89296947      13.06615522      16.54929297
Pd       9.65031838       6.88640464      15.96325796
Pd       8.35048266       4.07935115      16.34227621
Pd       0.64633430       2.17071294      17.06473095
Pd       4.07857598       7.06399744      16.37854499
O        9.79046983       2.96081236      17.13965885
O       10.76717165      10.79187928      15.96979519
O       13.69977148      13.44125866      16.07321525
O       12.57152077       2.10229058      17.67135677
O       11.13569411       0.45513498      15.87518984
O        4.25125582       8.77878374      17.31039239
O        2.51518280       2.46050908      16.18166236
O        1.41153334       0.93188158      18.40869092
O        8.72479601      13.05911295      15.85849703
O        1.31975656      10.83183438      15.59627714
O        2.37993052       0.13673019      17.86167133
O        3.65525049       5.24427306      15.81988291
O        6.88191123       5.26708942      15.65803733
O        7.42986113       8.89089855      16.99884239
O        7.50533708       1.06953048      17.38892697
O       13.65725396       3.69801560      15.91942701
O       11.12478952       5.30475622      15.97774576
O       13.58349002       8.20610742      16.89468834
O        5.02633534      13.29593140      17.23802709
O        6.80947692      11.21170022      15.58832387
