115
Lattice="13.75323 0.0 0.0 0.0 13.75323 0.0 0.0 0.0 23.89" Properties=species:S:1:pos:R:3 entry_id=15 rank=15 energy=-572.0654296875 parent_id=14 pbc="T T F"
Pd       0.00000000       0.00000000      10.00000000
Pd       2.75064538       0.00000000      10.00000000
Pd       5.50129076       0.00000000      10.00000000
Pd       8.25193614       0.00000000      10.00000000
Pd      11.00258152       0.00000000      10.00000000
Pd       0.00000000       2.75064538      10.00000000
Pd       2.75064538       2.75064538      10.00000000
Pd       5.50129076       2.75064538      10.00000000
Pd       8.25193614       2.75064538      10.00000000
Pd      11.00258152       2.75064538      10.00000000
Pd       0.00000000       5.50129076      10.00000000
Pd       2.75064538       5.50129076      10.00000000
Pd       5.50129076       5.50129076      10.00000000
Pd       8.25193614       5.50129076      10.00000000
Pd      11.00258152       5.50129076      10.00000000
Pd       0.00000000       8.25193614      10.00000000
Pd       2.75064538       8.25193614      10.00000000
Pd       5.50129076       8.25193614      10.00000000
Pd       8.25193614       8.25193614      10.00000000
Pd      11.00258152       8.25193614      10.00000000
Pd       0.00000000      11.00258152      10.00000000
Pd       2.75064538      11.00258152      10.00000000
Pd       5.50129076      11.00258152      10.00000000
Pd       8.25193614      11.00258152      10.00000000
Pd      11.00258152      11.00258152      10.00000000
Pd       1.36996638       1.38965804      11.99313063
Pd       4.09854453       1.40384816      12.01541532
Pd       6.83960151       1.36640132      11.98751522
Pd       9.57512057       1.39592898      11.89594876
Pd      12.38684272       1.37174114      11.92044161
Pd       1.35958807       4.14014491      11.99746466
Pd       4.07861762       4.11105413      12.01363611
Pd       6.82594744       4.10855736      11.96734317
Pd       9.56728621       4.13975942      11.94281254
Pd      12.36578195       4.13265160      11.93417299
Pd       1.37110082       6.89256210      11.94010419
Pd       4.13935064       6.87026939      11.96482277
Pd       6.87097415       6.85831372      11.95140951
Pd       9.64205429       6.82915781      11.94515418
Pd      12.39111484       6.85622887      11.94896407
Pd       1.37982664       9.65966655      11.97911899
Pd       4.11777592       9.66324146      11.95099537
Pd       6.89476706       9.64088005      11.95142944
Pd       9.64982872       9.59779534      11.89439304
Pd      12.42487279       9.60955999      11.94161946
Pd       1.36748079      12.40661886      11.98572372
Pd       4.12022873      12.41091073      11.97496854
Pd       6.86816975      12.39901143      11.97280504
Pd       9.63028672      12.36702810      11.91406436
Pd      12.40397059      12.35450963      11.99119030
Pd       0.00942830       0.05890389      14.00554005
Pd       2.76686028       0.02658340      14.03949836
Pd       5.48106396       0.01520673      14.03289004
Pd       8.25402153      13.72909137      13.92701848
Pd      10.98509185       0.01639079      13.88689726
Pd      13.65071609       2.82243749      13.97314552
Pd       2.61696062       2.74228241      14.10770935
Pd       6.21499532       1.44319163      16.40101620
Pd       8.30594782       2.73155446      13.97162262
Pd      10.98481119       2.69147149      13.95938525
Pd      13.75030136       5.54720827      14.04366182
Pd       2.71680264       5.56433547      13.97571678
Pd       5.41884938       5.52498422      13.98440992
Pd       8.26561045       5.56546635      13.88413120
Pd      11.02866242       5.39843548      13.95439212
Pd      13.74744287       8.26545082      13.94122865
Pd       2.81896373       8.30620621      13.93627713
Pd       5.55534628       8.26913630      14.02643676
Pd       8.30901671       8.28151403      14.00061590
Pd      11.03222037       8.21719771      13.99936445
Pd      13.69175785      10.99532958      14.10555822
Pd       2.80454716      11.08181542      13.95390762
Pd       5.51667744      10.98567209      13.91542743
Pd       8.25378239      10.97407796      13.90045484
Pd      10.96568618      10.96741306      13.90546317
Pd      12.52386583       6.85756552      16.28519522
Pd       9.33032263       9.63577758      16.51086681
Pd       1.82320205      12.52633924      16.69558962
Pd       1.43512797       7.44372834      16.08234773
Pd      12.28472073       9.59946881      16.20837205
Pd       9.33079344       1.39257981      16.29520144
Pd       3.60517628       1.05545661      16.55060533
Pd       6.10292321       9.88519454      16.41538634
Pd       4.40433366      12.13333861      16.03791475
Pd      12.18649239      12.47694675      16.07316895
Pd       1.46599823       4.67210199      16.28702679
Pd       5.37161319       2.77242356      14.03594295
Pd      11.60206174       3.53838473      16.76511712
Pd       2.96463373       9.79872479      16.33509901
Pd       7.11776032       7.26674696      16.36100475
Pd       6.99184408      12.76216026      16.36281718
Pd       9.69890811       6.85010882      16.00769446
Pd       8.27215687       4.40657022      16.30513452
Pd       0.15864356       1.81243631      16.57897756
Pd       4.09825054       7.13051663      16.29093251
O        9.65665872       3.19807965      17.01448072
O       10.83793668      10.95300845      15.97383034
O        0.08946761      13.60912112      16.09231247
O       12.04482679       1.62856820      17.45710879
O       11.19915256       0.59814338      17.01483076
O        4.52392233       8.89044980      17.09196211
O        2.13064691       2.29406175      16.07289855
O        2.68113552      13.58019875      19.22293873
O        8.86767483      13.33158767      15.81433508
O        1.46362621      10.91108159      15.59387648
O        2.24051371       0.19424210      18.05894021
O        3.31695200       5.34924614      15.91520862
O        6.82615803       5.54561241      15.51971806
O        7.70460764       8.81739249      17.35519063
O        6.90049968       2.97952975      15.47855665
O       13.63798201       3.72212680      17.02164821
O       11.24950411       5.38143037      16.03564908
O       13.61510871       8.34186063      16.92995520
O        5.21439790      13.68025604      17.23119775
O        7.75018031      10.92792113      15.90922986
