115
Lattice="13.75323 0.0 0.0 0.0 13.75323 0.0 0.0 0.0 23.89" Properties=species:S:1:pos:R:3 entry_id=14 rank=16 energy=-572.063232421875 parent_id=13 pbc="T T F"
Pd       0.00000000       0.00000000      10.00000000
Pd       2.75064538       0.00000000      10.00000000
Pd       5.50129076       0.00000000      10.00000000
Pd       8.25193614       0.00000000      10.00000000
Pd      11.00258152       0.00000000      10.00000000
Pd       0.00000000       2.75064538      10.00000000
Pd       2.75064538       2.75064538      10.00000000
Pd       5.50129076       2.75064538      10.00000000
Pd       8.25193614       2.75064538      10.00000000
Pd      11.00258152       2.75064538      10.00000000
Pd       0.00000000       5.50129076      10.00000000
Pd       2.75064538       5.50129076      10.00000000
Pd       5.50129076       5.50129076      10.00000000
Pd       8.25193614       5.50129076      10.00000000
Pd      11.00258152       5.50129076      10.00000000
Pd       0.00000000       8.25193614      10.00000000
Pd       2.75064538       8.25193614      10.00000000
Pd       5.50129076       8.25193614      10.00000000
Pd       8.25193614       8.25193614      10.00000000
Pd      11.00258152       8.25193614      10.00000000
Pd       0.00000000      11.00258152      10.00000000
Pd       2.75064538      11.00258152      10.00000000
Pd       5.50129076      11.00258152      10.00000000
Pd       8.25193614      11.00258152      10.00000000
Pd      11.00258152      11.00258152      10.00000000
Pd       1.37240516       1.38772626      11.99173436
Pd       4.10546324       1.39638008      12.01338099
Pd       6.84458674       1.36455199      11.98941199
Pd       9.57512057       1.39592898      11.89594876
Pd      12.38684272       1.37174114      11.92044161
Pd       1.36082410       4.14108932      11.99652147
Pd       4.08158598       4.10585233      12.01393560
Pd       6.82761011       4.10412375      11.96555292
Pd       9.56728621       4.13975942      11.94281254
Pd      12.36578195       4.13265160      11.93417299
Pd       1.37110082       6.89256210      11.94010419
Pd       4.13935064       6.87026939      11.96482277
Pd       6.87097415       6.85831372      11.95140951
Pd       9.64205429       6.82915781      11.94515418
Pd      12.39111484       6.85622887      11.94896407
Pd       1.38263338       9.66023208      11.98107499
Pd       4.11777592       9.66324146      11.95099537
Pd       6.89476706       9.64088005      11.95142944
Pd       9.64982872       9.59779534      11.89439304
Pd      12.42487279       9.60955999      11.94161946
Pd       1.37178612      12.40511350      11.98804526
Pd       4.12229900      12.40493611      11.97696178
Pd       6.86816975      12.39901143      11.97280504
Pd       9.63028672      12.36702810      11.91406436
Pd      12.40636005      12.35294155      11.99086599
Pd       0.01293838       0.05587230      14.00047720
Pd       2.77260150       0.02480227      14.04079013
Pd       5.48405751      13.75012947      14.03702764
Pd       8.25697047      13.72904117      13.92878556
Pd      10.98803527       0.01130049      13.88562182
Pd      13.66470878       2.81887497      13.96591965
Pd       2.63320269       2.74350207      14.09811688
Pd       6.23070361       1.42507616      16.39735344
Pd       8.32238829       2.73309917      13.96624361
Pd      11.00000981       2.68681256      13.95848808
Pd       0.00109333       5.54240843      14.04581296
Pd       2.71919570       5.57122448      13.97412185
Pd       5.42002673       5.50695257      13.98243426
Pd       8.26441724       5.56882801      13.88317362
Pd      11.03052630       5.39503209      13.95352737
Pd       0.00475185       8.26170852      13.93843548
Pd       2.83351336       8.30868372      13.93861970
Pd       5.56676821       8.25446276      14.03086817
Pd       8.31799967       8.28389810      14.00208312
Pd      11.04116591       8.21330818      13.99840821
Pd      13.69836126      10.99076068      14.10393401
Pd       2.80962566      11.07947843      13.96261482
Pd       5.51889465      10.96804013      13.92298018
Pd       8.25472578      10.97453937      13.90176805
Pd      10.96763962      10.96349079      13.90454265
Pd      12.53843437       6.85807782      16.28409183
Pd       9.33241683       9.61473076      16.51650580
Pd       1.81917666      12.52299542      16.68832643
Pd       1.45174228       7.41961694      16.07077640
Pd      12.29910071       9.59148509      16.20309888
Pd       9.33917690       1.38310150      16.28713565
Pd       3.61783073       1.05480052      16.54981794
Pd       6.10482904       9.86832700      16.42867993
Pd       4.40620287      12.12139759      16.04840866
Pd      12.18390311      12.45983115      16.07104149
Pd       1.50040523       4.65176587      16.27951887
Pd       5.38536009       2.75463922      14.03465384
Pd      11.62098763       3.53272452      16.74948493
Pd       2.97229908       9.78518220      16.34509085
Pd       7.12057971       7.24828917      16.36175417
Pd       6.99649607      12.74098358      16.35967790
Pd       9.70754787       6.84165178      16.00590584
Pd       8.28414042       4.39894453      16.29881128
Pd       0.17078572       1.80013513      16.56396876
Pd       4.11452227       7.11813089      16.30485674
O        9.67523341       3.19169419      16.99670778
O       10.83867019      10.93132596      15.97362655
O        0.08585682      13.59316747      16.08195872
O       12.05623062       1.61948013      17.43724836
O       11.20727864       0.59041220      16.99450748
O        4.52707245       8.87722918      17.11299649
O        2.14707328       2.29760737      16.06414641
O        2.57307269      13.65786590      19.21961376
O        8.87194403      13.31962319      15.81382476
O        1.47219809      10.89713350      15.60142565
O        2.19505951       0.23086262      18.02252752
O        3.35296621       5.33273538      15.90549076
O        6.82656410       5.52859097      15.51984029
O        7.70731739       8.79598781      17.36173631
O        6.92029133       2.95967459      15.47334696
O       13.65959376       3.71087962      17.00452237
O       11.26718500       5.38091980      16.03348373
O       13.64064857       8.34006811      16.91729577
O        5.21968232      13.67188994      17.23408254
O        7.75395624      10.90574284      15.91192084
