115
Lattice="13.75323 0.0 0.0 0.0 13.75323 0.0 0.0 0.0 23.89" Properties=species:S:1:pos:R:3 entry_id=6 rank=25 energy=-571.123779296875 parent_id=5 pbc="T T F"
Pd       0.00000000       0.00000000      10.00000000
Pd       2.75064538       0.00000000      10.00000000
Pd       5.50129076       0.00000000      10.00000000
Pd       8.25193614       0.00000000      10.00000000
Pd      11.00258152       0.00000000      10.00000000
Pd       0.00000000       2.75064538      10.00000000
Pd       2.75064538       2.75064538      10.00000000
Pd       5.50129076       2.75064538      10.00000000
Pd       8.25193614       2.75064538      10.00000000
Pd      11.00258152       2.75064538      10.00000000
Pd       0.00000000       5.50129076      10.00000000
Pd       2.75064538       5.50129076      10.00000000
Pd       5.50129076       5.50129076      10.00000000
Pd       8.25193614       5.50129076      10.00000000
Pd      11.00258152       5.50129076      10.00000000
Pd       0.00000000       8.25193614      10.00000000
Pd       2.75064538       8.25193614      10.00000000
Pd       5.50129076       8.25193614      10.00000000
Pd       8.25193614       8.25193614      10.00000000
Pd      11.00258152       8.25193614      10.00000000
Pd       0.00000000      11.00258152      10.00000000
Pd       2.75064538      11.00258152      10.00000000
Pd       5.50129076      11.00258152      10.00000000
Pd       8.25193614      11.00258152      10.00000000
Pd      11.00258152      11.00258152      10.00000000
Pd       1.36392574       1.40682524      12.02051947
Pd       4.10459364       1.38963387      11.99253530
Pd       6.81349667       1.35898944      12.00086601
Pd       9.57512057       1.39592898      11.89594876
Pd      12.38684272       1.37174114      11.92044161
Pd       1.36226993       4.14623534      11.97418412
Pd       4.09566107       4.12338483      12.01339765
Pd       6.81894918       4.09181803      11.99020170
Pd       9.56728621       4.13975942      11.94281254
Pd      12.36578195       4.13265160      11.93417299
Pd       1.37110082       6.89256210      11.94010419
Pd       4.13935064       6.87026939      11.96482277
Pd       6.87097415       6.85831372      11.95140951
Pd       9.64205429       6.82915781      11.94515418
Pd      12.39111484       6.85622887      11.94896407
Pd       1.40132772       9.65338143      11.98307408
Pd       4.11777592       9.66324146      11.95099537
Pd       6.89476706       9.64088005      11.95142944
Pd       9.64982872       9.59779534      11.89439304
Pd      12.42487279       9.60955999      11.94161946
Pd       1.38928133      12.40124967      12.00746973
Pd       4.11469978      12.39006083      11.98412769
Pd       6.86816975      12.39901143      11.97280504
Pd       9.63028672      12.36702810      11.91406436
Pd      12.38804526      12.36667189      11.97220048
Pd       0.01850462       0.01795848      13.99035562
Pd       2.65787549      11.01311133      14.07533571
Pd       5.54315394      13.59836368      14.09687868
Pd       8.27141119       0.01051953      13.91707223
Pd      10.99786301       0.02218937      13.89863508
Pd      13.51820473       2.81144024      13.98376424
Pd       2.79286309      13.73042841      14.03353177
Pd       5.39406837       2.59253155      14.12059722
Pd       8.17039262       2.73091087      13.95747556
Pd      10.84346861       2.68867500      13.94122674
Pd       0.07890399       5.51720713      13.97276621
Pd       2.48666964       3.00021005      14.09941135
Pd       5.46514715       5.42618908      14.01073940
Pd       8.35160907       5.50135236      13.94711411
Pd      11.06857468       5.39397071      13.96907082
Pd       0.12275926       8.27222190      13.94316772
Pd       2.76396873       5.65679905      14.01852284
Pd       5.62153579       8.25318737      13.94551897
Pd       8.33716689       8.28592739      13.97985778
Pd      11.07167398       8.24049421      13.91511829
Pd      13.68668424      11.00244248      14.01162563
Pd       2.86569993       8.35917967      14.03227354
Pd       5.41292503      10.93513123      13.95493269
Pd       8.15395403      11.01164425      13.97745069
Pd      10.88990337      10.99376194      13.92201978
Pd      12.53984560       6.70861738      16.07533159
Pd       9.22686116       9.64464484      16.47391605
Pd       1.06950478      11.56017392      16.49881242
Pd       1.65278285       7.09975132      16.35070598
Pd      12.28953437       9.58463612      16.05937237
Pd       9.17545832       1.40740454      16.38195929
Pd       4.30997488       0.55541448      16.53162721
Pd       6.09616510       9.82254333      16.41350523
Pd       4.05912324      11.68984273      16.17151625
Pd      12.17091404      12.37771806      16.06917170
Pd       1.23640158       4.47180736      16.35337994
Pd       4.14179371       4.36663389      16.30090002
Pd      11.35973266       3.38088871      16.62326284
Pd       2.95055232       9.38062265      17.02961589
Pd       7.22027764       7.06804181      16.30827293
Pd       6.82472878      12.96812091      16.57313829
Pd       9.82123956       7.03511031      15.95472224
Pd       7.58404598       3.52593101      16.46195999
Pd       0.23922219       1.51561639      16.34263520
Pd       4.40794996       7.01421452      15.93597533
O        9.43994385       3.18718771      17.16719974
O       10.77740815      10.88191444      16.02103667
O        0.19500959      13.31981985      16.07322676
O       11.92049163       1.50440678      17.32062800
O       11.07049995       0.47819491      16.98130046
O        4.72529568       8.60599026      17.11508692
O        3.56407224       1.60336723      15.06016391
O        1.85750295       1.79907133      17.70580584
O        8.57840765      13.41524700      15.85252528
O        1.31117073      10.06757394      17.61749685
O        2.74666682       0.86544016      17.90692689
O        2.74079149       5.55840804      17.05449219
O        7.02097048       5.30961694      15.48626406
O        7.65278759       8.70980339      17.25344791
O        5.66885193       3.12641331      16.08884162
O       13.35933219       3.38206230      16.07579309
O       11.11694091       5.32721417      16.07276610
O        0.02159691       8.23795224      16.02538741
O        5.10235553      12.81326742      17.53708542
O        7.62281670      11.03337613      15.99891447
