115
Lattice="13.75323 0.0 0.0 0.0 13.75323 0.0 0.0 0.0 23.89" Properties=species:S:1:pos:R:3 entry_id=19 rank=10 energy=-572.4319458007812 parent_id=18 pbc="T T F"
Pd       0.00000000       0.00000000      10.00000000
Pd       2.75064538       0.00000000      10.00000000
Pd       5.50129076       0.00000000      10.00000000
Pd       8.25193614       0.00000000      10.00000000
Pd      11.00258152       0.00000000      10.00000000
Pd       0.00000000       2.75064538      10.00000000
Pd       2.75064538       2.75064538      10.00000000
Pd       5.50129076       2.75064538      10.00000000
Pd       8.25193614       2.75064538      10.00000000
Pd      11.00258152       2.75064538      10.00000000
Pd       0.00000000       5.50129076      10.00000000
Pd       2.75064538       5.50129076      10.00000000
Pd       5.50129076       5.50129076      10.00000000
Pd       8.25193614       5.50129076      10.00000000
Pd      11.00258152       5.50129076      10.00000000
Pd       0.00000000       8.25193614      10.00000000
Pd       2.75064538       8.25193614      10.00000000
Pd       5.50129076       8.25193614      10.00000000
Pd       8.25193614       8.25193614      10.00000000
Pd      11.00258152       8.25193614      10.00000000
Pd       0.00000000      11.00258152      10.00000000
Pd       2.75064538      11.00258152      10.00000000
Pd       5.50129076      11.00258152      10.00000000
Pd       8.25193614      11.00258152      10.00000000
Pd      11.00258152      11.00258152      10.00000000
Pd       1.34263973       1.39075046      11.99296105
Pd       4.07616666       1.36876365      11.93903871
Pd       6.85510260       1.38127239      11.96823411
Pd       9.57512057       1.39592898      11.89594876
Pd      12.38684272       1.37174114      11.92044161
Pd       1.35104366       4.14883477      11.98010669
Pd       4.09110976       4.13051521      11.98680816
Pd       6.84956365       4.09789480      11.99579220
Pd       9.56728621       4.13975942      11.94281254
Pd      12.36578195       4.13265160      11.93417299
Pd       1.37110082       6.89256210      11.94010419
Pd       4.13935064       6.87026939      11.96482277
Pd       6.87097415       6.85831372      11.95140951
Pd       9.64205429       6.82915781      11.94515418
Pd      12.39111484       6.85622887      11.94896407
Pd       1.37661637       9.65612132      11.96315698
Pd       4.11777592       9.66324146      11.95099537
Pd       6.89476706       9.64088005      11.95142944
Pd       9.64982872       9.59779534      11.89439304
Pd      12.42487279       9.60955999      11.94161946
Pd       1.35423417      12.41192721      11.97892046
Pd       4.09725151      12.39193032      11.95783221
Pd       6.86816975      12.39901143      11.97280504
Pd       9.63028672      12.36702810      11.91406436
Pd      12.39127390      12.35359751      12.00091017
Pd       0.03452863       0.03309043      14.01919146
Pd       2.78251593       0.04694648      14.03103324
Pd       5.49542184      13.72333530      13.94217989
Pd       8.31744735       0.02572335      13.85157570
Pd      11.02610131       0.04670955      13.90119974
Pd      13.59110922       2.80111901      13.98791872
Pd       2.64484736       2.79583996      13.97327442
Pd       5.35681350       2.64212292      13.91360173
Pd       8.06556731       2.71043377      14.22002172
Pd      10.83653778       2.73392057      13.96687112
Pd       0.06294272       5.51855466      14.07422530
Pd       2.76955830       5.61797418      13.96288788
Pd       5.44945126       5.42541806      14.02258422
Pd       8.27378927       5.51774513      13.92684675
Pd      11.04563023       5.44382411      13.91651774
Pd       0.03923424       8.23775986      13.93789587
Pd       2.84926005       8.30622560      13.90808857
Pd       5.56925635       8.20692091      14.03574459
Pd       8.32048396       8.31211120      13.96343313
Pd      11.06833884       8.26549543      13.98371244
Pd      13.67926988      10.97310914      14.06990727
Pd       2.74881696      11.07599051      13.93829974
Pd       5.46693047      10.94216954      13.85752569
Pd       8.13455578      11.06577063      14.13682601
Pd      10.88143426      10.99925173      13.91577761
Pd      12.63781319       6.93493182      16.26039647
Pd       9.26682570       9.72983335      16.31490360
Pd       1.85109230      12.51484278      16.63420568
Pd       1.60053314       7.21153873      15.99424884
Pd      12.46515277       9.60119206      16.20256895
Pd       9.50776457       1.69464547      16.45588933
Pd       3.90674629       1.23843929      16.42650693
Pd       5.98210302      10.09207271      16.38902713
Pd       4.32220090      12.14553835      15.92006954
Pd      12.21787634      12.43498752      16.05411061
Pd       2.12799295       4.53409087      16.32051926
Pd       5.55625491       3.40348272      16.39593664
Pd      11.82094503       3.69687518      16.62908294
Pd       2.97911459       9.69530392      16.25941959
Pd       7.13800029       7.21506137      16.27750764
Pd       7.04756099      13.63140959      16.27973867
Pd       9.74429664       6.94100677      15.96465088
Pd       8.49738158       4.44905263      16.44350197
Pd       0.43522771       1.84340116      16.46107018
Pd       4.35279304       6.82410622      16.33628064
O        9.95779720       3.43562041      17.27019125
O       10.92659689      10.86681932      15.98620700
O        0.10123509      13.55808752      16.09858977
O       12.28580558       1.83396211      17.32839967
O       11.35246746       0.84872400      16.94110853
O        4.55911631       8.74619125      16.88483566
O        2.39785580       2.44529867      15.98242661
O        1.40219309       1.09190511      18.19375258
O        8.96482089      13.71316329      15.77297779
O        1.44988827      10.85039352      15.63450965
O        2.42456936       0.29181091      17.81293058
O        4.09993212       4.83537347      16.59613205
O        6.91077524       5.35488293      15.65345773
O        7.59710941       8.94918708      17.02074731
O        7.08527402       2.04188902      16.11956468
O        0.09950167       3.87750506      16.00857483
O       11.32936369       5.51698603      15.97734730
O        0.10185815       8.33550660      16.84820869
O        5.20078938      13.61440324      16.99421449
O        7.31332604      11.55985335      16.04022539
