115
Lattice="13.75323 0.0 0.0 0.0 13.75323 0.0 0.0 0.0 23.89" Properties=species:S:1:pos:R:3 entry_id=1 rank=26 energy=-571.1141357421875 parent_id=0 pbc="T T F"
Pd       0.00000000       0.00000000      10.00000000
Pd       2.75064538       0.00000000      10.00000000
Pd       5.50129076       0.00000000      10.00000000
Pd       8.25193614       0.00000000      10.00000000
Pd      11.00258152       0.00000000      10.00000000
Pd       0.00000000       2.75064538      10.00000000
Pd       2.75064538       2.75064538      10.00000000
Pd       5.50129076       2.75064538      10.00000000
Pd       8.25193614       2.75064538      10.00000000
Pd      11.00258152       2.75064538      10.00000000
Pd       0.00000000       5.50129076      10.00000000
Pd       2.75064538       5.50129076      10.00000000
Pd       5.50129076       5.50129076      10.00000000
Pd       8.25193614       5.50129076      10.00000000
Pd      11.00258152       5.50129076      10.00000000
Pd       0.00000000       8.25193614      10.00000000
Pd       2.75064538       8.25193614      10.00000000
Pd       5.50129076       8.25193614      10.00000000
Pd       8.25193614       8.25193614      10.00000000
Pd      11.00258152       8.25193614      10.00000000
Pd       0.00000000      11.00258152      10.00000000
Pd       2.75064538      11.00258152      10.00000000
Pd       5.50129076      11.00258152      10.00000000
Pd       8.25193614      11.00258152      10.00000000
Pd      11.00258152      11.00258152      10.00000000
Pd       1.34419789       1.40777451      12.06824575
Pd       4.07582434       1.39647327      11.96818856
Pd       6.84057848       1.35767672      11.97808244
Pd       9.57512057       1.39592898      11.89594876
Pd      12.38684272       1.37174114      11.92044161
Pd       1.37995573       4.11973819      12.00870721
Pd       4.08206930       4.14354489      12.01214387
Pd       6.81721424       4.10824213      12.00352019
Pd       9.56728621       4.13975942      11.94281254
Pd      12.36578195       4.13265160      11.93417299
Pd       1.37110082       6.89256210      11.94010419
Pd       4.13935064       6.87026939      11.96482277
Pd       6.87097415       6.85831372      11.95140951
Pd       9.64205429       6.82915781      11.94515418
Pd      12.39111484       6.85622887      11.94896407
Pd       1.37150634       9.68158517      12.00227708
Pd       4.11777592       9.66324146      11.95099537
Pd       6.89476706       9.64088005      11.95142944
Pd       9.64982872       9.59779534      11.89439304
Pd      12.42487279       9.60955999      11.94161946
Pd       1.36841453      12.43883961      12.02400635
Pd       4.09034987      12.40552695      11.96998115
Pd       6.86816975      12.39901143      11.97280504
Pd       9.63028672      12.36702810      11.91406436
Pd      12.41942286      12.33661353      11.98193816
Pd      13.70306266       0.02636060      14.07195681
Pd       2.76269846       0.12700584      14.13426419
Pd       5.51582716      13.69902415      13.94912363
Pd       8.28052619      13.70386182      13.96544731
Pd      10.99938150       0.09946474      13.75321735
Pd      13.53249836       2.78647003      13.97408953
Pd       2.54308910       2.93899734      14.23739781
Pd       5.41675958       2.64764344      13.96745988
Pd       8.20082965       2.67562190      13.95547274
Pd      10.85562566       2.73494644      13.92144330
Pd       0.06811679       5.50418979      13.95064463
Pd       2.76219686       5.63346151      14.03869019
Pd       5.52836807       5.56077789      14.07827544
Pd       8.28427191       5.44976227      13.99550017
Pd      11.03470813       5.42093985      13.97394488
Pd       0.08879105       8.26215350      13.94990472
Pd       2.83997986       8.33764496      13.98138762
Pd       5.61876966       8.29702361      13.93967043
Pd       8.34594684       8.26521439      13.96370946
Pd      11.06662889       8.23742364      13.91876433
Pd      13.61327775      10.94532160      14.26487664
Pd       2.74688090      11.11761641      13.97221025
Pd       5.48002566      10.99031880      13.89895474
Pd       8.19567328      10.98559543      14.11484907
Pd      10.93441329      10.94376022      13.86373125
Pd      12.54952634       6.58219788      16.10801898
Pd       9.06428997       9.62815838      16.50811836
Pd       1.79478963      12.79791759      16.56036387
Pd       1.64485599       7.05978596      16.28401110
Pd      12.12683763       9.40581789      16.19457810
Pd       9.22669767       1.14370335      16.29646514
Pd       4.47981978       1.07497516      17.12356193
Pd       5.80776566      10.10488430      16.48527414
Pd       4.31058146      12.26694017      15.99049456
Pd      11.21123004      12.57046850      15.94816275
Pd       0.86596613       4.40444677      16.42517556
Pd       3.87165505       4.57836832      16.36424063
Pd      11.16179538       3.24368396      16.62836126
Pd       2.93275677       9.79310971      16.38975256
Pd       7.21801226       7.01552372      16.23977958
Pd       6.79661612      13.40084566      16.36638209
Pd       9.86669137       7.07390136      16.00648696
Pd       7.30894139       3.36281349      16.44669589
Pd       0.74399320       1.55229722      16.15466502
Pd       4.41024117       7.16501429      16.01015240
O        9.18631370       2.90838198      17.14864041
O       10.72941518      10.64948079      16.68208401
O       13.15328798      12.50378563      15.61428154
O       11.79920552       1.51947985      17.50905190
O       10.90383684       0.52740596      17.48345650
O        4.44359036       8.82845612      17.14759403
O        3.89197610       1.62651722      15.14528461
O        1.75999777       1.54121731      17.88262117
O        9.27721543      13.00537320      15.73544950
O        1.51651733      10.98668510      15.68250110
O        2.64899364       0.45652313      17.75715573
O        2.34105574       5.41814054      17.22121096
O        7.95221616       5.19729991      15.97399969
O        7.32977057       8.82181987      16.96337777
O        5.56526258       3.95358816      15.56220558
O       13.12819321       3.18416706      15.99767316
O       11.07364578       5.23835389      16.05987796
O       13.71825521       8.20050030      16.03286060
O        6.39326803       1.51330090      16.94865252
O        7.15645871      11.47051913      15.95850215
