115
Lattice="13.75323 0.0 0.0 0.0 13.75323 0.0 0.0 0.0 23.89" Properties=species:S:1:pos:R:3 entry_id=17 rank=22 energy=-571.6032104492188 parent_id=16 pbc="T T F"
Pd       0.00000000       0.00000000      10.00000000
Pd       2.75064538       0.00000000      10.00000000
Pd       5.50129076       0.00000000      10.00000000
Pd       8.25193614       0.00000000      10.00000000
Pd      11.00258152       0.00000000      10.00000000
Pd       0.00000000       2.75064538      10.00000000
Pd       2.75064538       2.75064538      10.00000000
Pd       5.50129076       2.75064538      10.00000000
Pd       8.25193614       2.75064538      10.00000000
Pd      11.00258152       2.75064538      10.00000000
Pd       0.00000000       5.50129076      10.00000000
Pd       2.75064538       5.50129076      10.00000000
Pd       5.50129076       5.50129076      10.00000000
Pd       8.25193614       5.50129076      10.00000000
Pd      11.00258152       5.50129076      10.00000000
Pd       0.00000000       8.25193614      10.00000000
Pd       2.75064538       8.25193614      10.00000000
Pd       5.50129076       8.25193614      10.00000000
Pd       8.25193614       8.25193614      10.00000000
Pd      11.00258152       8.25193614      10.00000000
Pd       0.00000000      11.00258152      10.00000000
Pd       2.75064538      11.00258152      10.00000000
Pd       5.50129076      11.00258152      10.00000000
Pd       8.25193614      11.00258152      10.00000000
Pd      11.00258152      11.00258152      10.00000000
Pd       1.34806540       1.38101047      11.98883058
Pd       4.09854443       1.38366332      11.96460756
Pd       6.86472916       1.40106343      12.01307239
Pd       9.57512057       1.39592898      11.89594876
Pd      12.38684272       1.37174114      11.92044161
Pd       1.34872514       4.14398416      11.97723022
Pd       4.08943549       4.11888475      11.98905549
Pd       6.84102482       4.09375310      12.01224979
Pd       9.56728621       4.13975942      11.94281254
Pd      12.36578195       4.13265160      11.93417299
Pd       1.37110082       6.89256210      11.94010419
Pd       4.13935064       6.87026939      11.96482277
Pd       6.87097415       6.85831372      11.95140951
Pd       9.64205429       6.82915781      11.94515418
Pd      12.39111484       6.85622887      11.94896407
Pd       1.38363976       9.65381001      11.97909396
Pd       4.11777592       9.66324146      11.95099537
Pd       6.89476706       9.64088005      11.95142944
Pd       9.64982872       9.59779534      11.89439304
Pd      12.42487279       9.60955999      11.94161946
Pd       1.37654036      12.39266421      11.98447366
Pd       4.11033650      12.38963371      11.98157501
Pd       6.86816975      12.39901143      11.97280504
Pd       9.63028672      12.36702810      11.91406436
Pd      12.41161642      12.34867948      11.99176960
Pd       0.05793037       0.00193578      13.99997337
Pd       2.80074321       0.03758135      14.03178492
Pd       5.51905348       0.04341339      13.96743173
Pd       8.31367124       0.03095733      13.88071169
Pd      11.04804565       0.02775295      13.89172459
Pd      13.55907475       2.79207514      13.99958947
Pd       2.60761467       2.78518436      13.97356052
Pd       5.30490652       2.69996281      14.04776201
Pd       7.98974471       2.71373166      14.30929661
Pd      10.79293089       2.70959010      13.95929261
Pd       0.02763887       5.51394426      14.03644983
Pd       2.76448535       5.58203909      13.97496881
Pd       5.48480780       5.46778289      14.00754102
Pd       8.21954687       5.51177496      13.90935786
Pd      11.01140289       5.44090366      13.99918752
Pd       0.01154886       8.23122595      13.93439001
Pd       2.83330977       8.29659059      13.93511030
Pd       5.57005225       8.20761608      14.03823048
Pd       8.31617501       8.28950549      13.93051574
Pd      11.06446411       8.23301293      13.87074125
Pd      13.69495772      10.92819385      14.11777432
Pd       2.77111717      11.05682433      13.99129626
Pd       5.49917523      10.97555263      13.87947305
Pd       8.29351486      10.98822331      13.99696633
Pd      10.96977793      10.97622975      13.90744242
Pd      12.35149760       6.51183394      16.30337551
Pd       9.12179140      10.08365952      16.54694169
Pd       1.91301471      12.45045782      16.69097956
Pd       1.42506656       7.16641538      15.95975790
Pd      12.21217449       9.33432701      16.18809809
Pd       9.55886690       1.06231797      16.24739482
Pd       3.96485958       1.31354732      16.38379219
Pd       5.66369867       9.87519875      16.42829218
Pd       4.33362437      12.23060507      15.92649354
Pd      12.27891607      12.33523515      16.06971537
Pd       1.90455047       4.51269659      16.33055140
Pd       5.44721346       4.03527584      16.36195019
Pd      11.78997057       3.23229136      16.64289340
Pd       2.86706093       9.61313008      16.36093808
Pd       7.30270898       7.67514460      16.46642189
Pd       7.02521865      13.37495663      16.30599397
Pd       9.89483721       7.53195262      16.10211271
Pd       8.97334975       4.29234720      16.43191949
Pd       0.46522694       1.67114300      16.43927309
Pd       4.22545259       6.84691709      16.04498088
O        9.95161172       2.75784542      17.16545497
O       10.89872097      10.84923896      15.99291992
O        0.18533426      13.41377370      16.06870052
O       12.34197371       1.40724563      17.38476198
O       11.45268117       0.34791588      17.05602439
O        4.33607971       8.58975455      17.14032658
O        2.38134885       2.44895662      15.97751297
O        1.48050915       1.03544452      18.18995775
O        8.87042931      13.06249343      15.71837585
O        1.43525093      10.82160076      15.66749923
O        2.53154566       0.27459445      17.79840454
O        3.78242631       4.99788552      16.77481386
O        8.15292062       5.99279048      15.88098127
O        7.44220045       9.40166540      17.34885871
O        7.24525290       3.28699077      16.20564195
O        0.00075727       3.68193372      16.02185515
O       11.01153756       5.02420535      16.09047250
O       13.52082233       7.98010309      16.81103929
O        5.23888593      13.70597148      17.02214398
O        6.80560724      11.27062812      15.53250037
