115
Lattice="13.75323 0.0 0.0 0.0 13.75323 0.0 0.0 0.0 23.89" Properties=species:S:1:pos:R:3 entry_id=13 rank=19 energy=-571.9244384765625 parent_id=12 pbc="T T F"
Pd       0.00000000       0.00000000      10.00000000
Pd       2.75064538       0.00000000      10.00000000
Pd       5.50129076       0.00000000      10.00000000
Pd       8.25193614       0.00000000      10.00000000
Pd      11.00258152       0.00000000      10.00000000
Pd       0.00000000       2.75064538      10.00000000
Pd       2.75064538       2.75064538      10.00000000
Pd       5.50129076       2.75064538      10.00000000
Pd       8.25193614       2.75064538      10.00000000
Pd      11.00258152       2.75064538      10.00000000
Pd       0.00000000       5.50129076      10.00000000
Pd       2.75064538       5.50129076      10.00000000
Pd       5.50129076       5.50129076      10.00000000
Pd       8.25193614       5.50129076      10.00000000
Pd      11.00258152       5.50129076      10.00000000
Pd       0.00000000       8.25193614      10.00000000
Pd       2.75064538       8.25193614      10.00000000
Pd       5.50129076       8.25193614      10.00000000
Pd       8.25193614       8.25193614      10.00000000
Pd      11.00258152       8.25193614      10.00000000
Pd       0.00000000      11.00258152      10.00000000
Pd       2.75064538      11.00258152      10.00000000
Pd       5.50129076      11.00258152      10.00000000
Pd       8.25193614      11.00258152      10.00000000
Pd      11.00258152      11.00258152      10.00000000
Pd       1.34520860       1.40671060      12.00751268
Pd       4.09685752       1.39541746      12.01855786
Pd       6.82969093       1.35240330      11.99554940
Pd       9.57512057       1.39592898      11.89594876
Pd      12.38684272       1.37174114      11.92044161
Pd       1.36650640       4.15442683      11.98564088
Pd       4.09346799       4.11361893      12.00805931
Pd       6.83322816       4.09935210      11.96290168
Pd       9.56728621       4.13975942      11.94281254
Pd      12.36578195       4.13265160      11.93417299
Pd       1.37110082       6.89256210      11.94010419
Pd       4.13935064       6.87026939      11.96482277
Pd       6.87097415       6.85831372      11.95140951
Pd       9.64205429       6.82915781      11.94515418
Pd      12.39111484       6.85622887      11.94896407
Pd       1.38394244       9.67339472      11.97628085
Pd       4.11777592       9.66324146      11.95099537
Pd       6.89476706       9.64088005      11.95142944
Pd       9.64982872       9.59779534      11.89439304
Pd      12.42487279       9.60955999      11.94161946
Pd       1.37523235      12.41828713      12.00089821
Pd       4.11053958      12.42257426      12.01042972
Pd       6.86816975      12.39901143      11.97280504
Pd       9.63028672      12.36702810      11.91406436
Pd      12.40316472      12.35203636      11.99196099
Pd      13.69373071      13.74855844      14.02028175
Pd       2.68621509       0.07088086      14.06939037
Pd       5.44204977      13.73209915      14.09921901
Pd       8.22432214      13.72866469      13.93810377
Pd      10.96252582      13.74638374      13.90800347
Pd      13.62669726       2.86765449      13.99712503
Pd       2.64889773       2.87322503      14.06421961
Pd       6.39388024       1.38832673      16.43694723
Pd       8.30148926       2.72238884      13.96458669
Pd      10.95786515       2.67478914      13.93447792
Pd       0.03441680       5.58742146      14.00260118
Pd       2.77757469       5.64025402      13.96855532
Pd       5.45665778       5.48640239      13.98587754
Pd       8.28977820       5.55420404      13.88712695
Pd      11.04797206       5.39070651      13.94016488
Pd       0.00123769       8.27340794      13.93927782
Pd       2.83003379       8.34616435      13.91910986
Pd       5.56245840       8.23923315      14.03027713
Pd       8.31225213       8.27114225      14.00984623
Pd      11.03456767       8.20085050      13.99412572
Pd      13.72855245      10.96499409      14.10471245
Pd       2.82618950      11.11470246      13.99172188
Pd       5.53522251      10.95515263      13.92291786
Pd       8.26821932      10.96846798      13.89167429
Pd      10.98393861      10.95170416      13.89647459
Pd      12.56791302       6.78131741      16.29159693
Pd       9.37749109       9.53184683      16.54095876
Pd       1.95411054      12.34493801      16.78501787
Pd       1.48261216       7.38192534      16.03423065
Pd      12.32256729       9.51203978      16.21136610
Pd       9.35779794       1.34710275      16.33842817
Pd       3.83026395       0.78474147      16.53327673
Pd       6.19495779       9.79688114      16.42307085
Pd       4.54931210      11.96710886      16.15327326
Pd      12.21138339      12.32154040      16.10206798
Pd       1.58096081       4.56155552      16.10863373
Pd       5.39172411       2.73431705      14.04015149
Pd      11.63042876       3.41922361      16.62515044
Pd       3.04542075       9.70152829      16.34888976
Pd       7.17365750       7.18868777      16.38376794
Pd       7.09827694      12.67532149      16.40500270
Pd       9.75309598       6.79641896      16.01569784
Pd       8.33577775       4.34320605      16.31884114
Pd       0.26581250       1.50847335      16.39042204
Pd       4.16560238       7.07746395      16.30426324
O        9.71449549       3.14680390      17.09291635
O       10.84352350      10.83665264      15.95864224
O        0.17388935      13.30250623      16.23108439
O       12.16649439       1.54282248      17.29314622
O       11.26363476       0.51421147      16.94616552
O        4.61299192       8.81970829      17.12215260
O        2.22848943       1.57057418      15.64139686
O        2.84378529      13.51169287      19.26626973
O        8.95378736      13.28938229      15.78241399
O        1.52936977      10.79740719      15.62485743
O        2.42609815       0.07120183      18.07893017
O        3.41729914       5.29379850      15.92375698
O        6.89673046       5.48780897      15.50620953
O        7.76250457       8.72683920      17.40081383
O        6.90943799       2.96298089      15.47905544
O       13.66498947       3.46686262      16.17297009
O       11.29277337       5.30884863      16.01199344
O       13.66959147       8.26349173      16.92324039
O        5.46717677      13.62458023      17.35660126
O        7.84101913      10.85107418      15.91112028
