115
Lattice="13.75323 0.0 0.0 0.0 13.75323 0.0 0.0 0.0 23.89" Properties=species:S:1:pos:R:3 entry_id=25 rank=17 energy=-572.037841796875 parent_id=4 pbc="T T F"
Pd       0.00000000       0.00000000      10.00000000
Pd       2.75064538       0.00000000      10.00000000
Pd       5.50129076       0.00000000      10.00000000
Pd       8.25193614       0.00000000      10.00000000
Pd      11.00258152       0.00000000      10.00000000
Pd       0.00000000       2.75064538      10.00000000
Pd       2.75064538       2.75064538      10.00000000
Pd       5.50129076       2.75064538      10.00000000
Pd       8.25193614       2.75064538      10.00000000
Pd      11.00258152       2.75064538      10.00000000
Pd       0.00000000       5.50129076      10.00000000
Pd       2.75064538       5.50129076      10.00000000
Pd       5.50129076       5.50129076      10.00000000
Pd       8.25193614       5.50129076      10.00000000
Pd      11.00258152       5.50129076      10.00000000
Pd       0.00000000       8.25193614      10.00000000
Pd       2.75064538       8.25193614      10.00000000
Pd       5.50129076       8.25193614      10.00000000
Pd       8.25193614       8.25193614      10.00000000
Pd      11.00258152       8.25193614      10.00000000
Pd       0.00000000      11.00258152      10.00000000
Pd       2.75064538      11.00258152      10.00000000
Pd       5.50129076      11.00258152      10.00000000
Pd       8.25193614      11.00258152      10.00000000
Pd      11.00258152      11.00258152      10.00000000
Pd       1.33967088       1.38724003      12.07430148
Pd       4.08770802       1.40745468      12.01815541
Pd       6.84230240       1.36262903      12.01706292
Pd       9.57512057       1.39592898      11.89594876
Pd      12.38684272       1.37174114      11.92044161
Pd       1.37426409       4.11436400      11.98897131
Pd       4.07912681       4.12959362      12.03565019
Pd       6.81794858       4.10771856      11.99877284
Pd       9.56728621       4.13975942      11.94281254
Pd      12.36578195       4.13265160      11.93417299
Pd       1.37110082       6.89256210      11.94010419
Pd       4.13935064       6.87026939      11.96482277
Pd       6.87097415       6.85831372      11.95140951
Pd       9.64205429       6.82915781      11.94515418
Pd      12.39111484       6.85622887      11.94896407
Pd       1.40082867       9.65286512      11.94714748
Pd       4.11777592       9.66324146      11.95099537
Pd       6.89476706       9.64088005      11.95142944
Pd       9.64982872       9.59779534      11.89439304
Pd      12.42487279       9.60955999      11.94161946
Pd       1.38077590      12.44481054      11.99398685
Pd       4.11674439      12.42192844      11.97781015
Pd       6.86816975      12.39901143      11.97280504
Pd       9.63028672      12.36702810      11.91406436
Pd      12.42973007      12.37535178      11.95558990
Pd      13.72250839      13.75068360      14.20065807
Pd       2.77582364       0.08198662      14.09725547
Pd       5.52848169      13.73871919      14.00965365
Pd       8.33190968      13.73506949      14.06923672
Pd      11.02333573       0.05123203      13.81541921
Pd      13.59816015       2.74381929      13.99325341
Pd       2.61106218       2.81843905      14.13251632
Pd       5.42678930       2.69636771      14.05568491
Pd       8.22165357       2.70675892      13.98700103
Pd      10.89322167       2.71651991      13.93622257
Pd       0.00604277       5.51139105      13.91994698
Pd       2.69302439       5.59301509      14.03461547
Pd       5.39354460       5.49267731      14.05927351
Pd       8.27551197       5.48050074      14.00778017
Pd      10.98216448       5.45058236      13.90089631
Pd       0.09088512       8.25732630      13.93622755
Pd       2.85238004       8.31441174      13.93455178
Pd       5.60936439       8.30259919      13.95555895
Pd       8.34620624       8.24221686      13.92700356
Pd      11.04260600       8.24570785      14.01376354
Pd      13.75035191      11.00646743      13.95572588
Pd       2.79873072      11.10401836      13.94822237
Pd       5.50646450      11.00071390      13.91660438
Pd       8.23211950      10.97103943      13.95868413
Pd      10.98648517      11.03189176      13.83456563
Pd      12.53867049       6.84029929      16.04848535
Pd       9.58534286       9.80455284      16.32448820
Pd       1.70804999      12.55040452      16.48222338
Pd       1.69732213       7.33347117      16.29339478
Pd      12.37916466       9.79084213      15.99720716
Pd       9.21849670       1.58757916      16.43860291
Pd       3.92891143       1.29462867      16.60288941
Pd       6.08717821       9.86944054      16.38367658
Pd       4.33809945      12.20305268      16.02341379
Pd      11.25787712      13.14437618      16.39734469
Pd       0.95739694       4.79038303      16.38730648
Pd       3.94675403       4.44408063      16.32557507
Pd      11.25745798       3.60586504      16.57926474
Pd       2.94977090       9.80543724      16.31230537
Pd       7.09744314       7.28480221      16.19130586
Pd       6.97556689      12.78220504      16.36338095
Pd       9.76298164       7.02855396      16.34570582
Pd       7.35444861       3.49510242      16.42607449
Pd       0.40926158       2.04967224      16.94217915
Pd       4.37124493       7.12523462      16.00780658
O        9.28547140       3.43475908      17.08351050
O       10.98219562      11.19268506      15.88634185
O       13.25584809      13.37474088      16.13012185
O       12.00971578       2.01293689      17.62194752
O       11.05904042       0.99088617      17.61348534
O        4.51166513       8.88876130      17.03765579
O        2.42360844       2.53828773      16.17938883
O        1.36693220       0.93037028      18.24812724
O        9.05242909      13.40909930      16.06305262
O        1.38332691      10.84889779      15.57456324
O        2.41589232       0.22131345      17.67802580
O        2.58873299       5.70885314      17.07922987
O        6.86694806       5.36770912      15.55041812
O        8.52659713       8.35868902      17.11514872
O        5.37218802       2.99670713      16.08803122
O       13.22467736       3.51375764      15.91357444
O       11.04579599       5.52018728      15.95557880
O        0.00483072       8.38895786      16.08335330
O        5.31019857      13.66942719      17.04664700
O        7.77355565      10.91151401      16.00751373
