115
Lattice="13.75323 0.0 0.0 0.0 13.75323 0.0 0.0 0.0 23.89" Properties=species:S:1:pos:R:3 entry_id=27 rank=20 energy=-571.826171875 parent_id=26 pbc="T T F"
Pd       0.00000000       0.00000000      10.00000000
Pd       2.75064538       0.00000000      10.00000000
Pd       5.50129076       0.00000000      10.00000000
Pd       8.25193614       0.00000000      10.00000000
Pd      11.00258152       0.00000000      10.00000000
Pd       0.00000000       2.75064538      10.00000000
Pd       2.75064538       2.75064538      10.00000000
Pd       5.50129076       2.75064538      10.00000000
Pd       8.25193614       2.75064538      10.00000000
Pd      11.00258152       2.75064538      10.00000000
Pd       0.00000000       5.50129076      10.00000000
Pd       2.75064538       5.50129076      10.00000000
Pd       5.50129076       5.50129076      10.00000000
Pd       8.25193614       5.50129076      10.00000000
Pd      11.00258152       5.50129076      10.00000000
Pd       0.00000000       8.25193614      10.00000000
Pd       2.75064538       8.25193614      10.00000000
Pd       5.50129076       8.25193614      10.00000000
Pd       8.25193614       8.25193614      10.00000000
Pd      11.00258152       8.25193614      10.00000000
Pd       0.00000000      11.00258152      10.00000000
Pd       2.75064538      11.00258152      10.00000000
Pd       5.50129076      11.00258152      10.00000000
Pd       8.25193614      11.00258152      10.00000000
Pd      11.00258152      11.00258152      10.00000000
Pd       1.37068314       1.42285962      12.01093415
Pd       4.08695030       1.39770421      12.00479437
Pd       6.82398976       1.37009992      11.98628237
Pd       9.57512057       1.39592898      11.89594876
Pd      12.38684272       1.37174114      11.92044161
Pd       1.36501146       4.14762098      11.98815390
Pd       4.06591501       4.12415345      12.03106211
Pd       6.81148974       4.11101455      11.99223982
Pd       9.56728621       4.13975942      11.94281254
Pd      12.36578195       4.13265160      11.93417299
Pd       1.37110082       6.89256210      11.94010419
Pd       4.13935064       6.87026939      11.96482277
Pd       6.87097415       6.85831372      11.95140951
Pd       9.64205429       6.82915781      11.94515418
Pd      12.39111484       6.85622887      11.94896407
Pd       1.39296048       9.66143957      11.96262502
Pd       4.11777592       9.66324146      11.95099537
Pd       6.89476706       9.64088005      11.95142944
Pd       9.64982872       9.59779534      11.89439304
Pd      12.42487279       9.60955999      11.94161946
Pd       1.39810926      12.42617698      11.96652134
Pd       4.13000890      12.40934455      11.97992787
Pd       6.86816975      12.39901143      11.97280504
Pd       9.63028672      12.36702810      11.91406436
Pd      12.39451521      12.37299384      11.95745621
Pd       0.06374197       0.11259022      13.95975329
Pd       2.81921488       0.07841762      14.09476244
Pd       5.52245388      13.72804454      14.01561458
Pd       8.29562636      13.70948179      13.95239281
Pd      11.02951280       0.02921578      13.95446774
Pd      13.60739062       2.80427026      13.96048009
Pd       2.58170428       2.81203281      14.13374864
Pd       5.39759309       2.67888289      14.03378306
Pd       8.21824695       2.69811458      13.93393805
Pd      10.90957445       2.70403739      13.86206186
Pd      13.71953416       5.55658497      13.95219947
Pd       2.68194223       5.58068134      14.05316586
Pd       5.39404209       5.46704787      14.04563795
Pd       8.31449856       5.45772191      13.99317270
Pd      10.99402770       5.47997325      14.02558484
Pd       0.08811521       8.26932564      13.91368650
Pd       2.87589052       8.28805058      13.94262888
Pd       5.63533724       8.29029603      13.95681541
Pd       8.36111765       8.23755065      13.92986318
Pd      11.05844438       8.19930538      14.06888744
Pd      13.74746763      11.02097635      13.98441848
Pd       2.84153457      11.09188478      13.93747224
Pd       5.52815859      10.98349853      13.97323149
Pd       8.23216679      10.98143428      13.96772543
Pd      10.97743709      11.02780522      13.90843201
Pd      12.74556075       6.85509181      16.32767223
Pd       9.65652979       9.72568544      16.31267762
Pd       1.95225268      12.42985503      16.48483794
Pd       1.82217799       7.33975223      16.34559158
Pd      12.43350316       9.75516319      16.00677965
Pd       9.37453180       1.61857706      16.26418548
Pd       3.64751076       1.44215776      16.69104841
Pd       6.31052852       9.78752230      16.36498577
Pd       4.61891595      12.24139205      16.14485896
Pd      12.37954176      13.63732115      16.38167923
Pd       0.94842606       4.80253847      16.41024127
Pd       3.90307737       4.47666675      16.37471623
Pd      11.07597962       3.79598575      16.26928289
Pd       3.34832749       9.70810190      16.33421284
Pd       7.34655194       7.00990346      16.17804688
Pd       6.87495795       0.21614709      16.46159472
Pd      10.01818179       6.97394874      16.62251386
Pd       7.19817357       3.23157034      16.37089767
Pd       0.15575517       2.10226380      16.94710019
Pd       4.52873640       7.07817971      16.03790758
O        9.17240788       3.48767257      16.85525819
O       11.01779671      11.10794042      15.94350081
O        0.03629166      12.58279508      15.54675979
O       11.97664121       2.17378754      17.77272218
O       11.20165001       1.04123046      17.45272093
O        4.83572164       8.75315751      17.15010340
O        2.07136324       2.55954737      16.15501486
O        1.04968485       0.79808999      18.14101666
O        8.70808347      13.56503609      15.91625812
O        1.79164923      10.67819975      15.64442847
O        2.25684761       0.25731799      17.66132866
O        2.56535734       5.68865777      17.18298960
O        6.88141431       5.20242767      15.49243873
O        8.56406779       8.27288213      17.07769250
O        5.16695897       2.93761789      16.07081363
O       13.13685441       3.61074531      15.84527269
O       11.40845495       5.64531516      17.06141787
O        0.16397420       8.43027333      15.98079986
O        5.07026255       0.16246138      17.21745394
O        7.93877595      10.77660419      15.95011451
