115
Lattice="13.75323 0.0 0.0 0.0 13.75323 0.0 0.0 0.0 23.89" Properties=species:S:1:pos:R:3 entry_id=36 rank=0 energy=-575.3966674804688 parent_id=35 pbc="T T F"
Pd       0.00000000       0.00000000      10.00000000
Pd       2.75064538       0.00000000      10.00000000
Pd       5.50129076       0.00000000      10.00000000
Pd       8.25193614       0.00000000      10.00000000
Pd      11.00258152       0.00000000      10.00000000
Pd       0.00000000       2.75064538      10.00000000
Pd       2.75064538       2.75064538      10.00000000
Pd       5.50129076       2.75064538      10.00000000
Pd       8.25193614       2.75064538      10.00000000
Pd      11.00258152       2.75064538      10.00000000
Pd       0.00000000       5.50129076      10.00000000
Pd       2.75064538       5.50129076      10.00000000
Pd       5.50129076       5.50129076      10.00000000
Pd       8.25193614       5.50129076      10.00000000
Pd      11.00258152       5.50129076      10.00000000
Pd       0.00000000       8.25193614      10.00000000
Pd       2.75064538       8.25193614      10.00000000
Pd       5.50129076       8.25193614      10.00000000
Pd       8.25193614       8.25193614      10.00000000
Pd      11.00258152       8.25193614      10.00000000
Pd       0.00000000      11.00258152      10.00000000
Pd       2.75064538      11.00258152      10.00000000
Pd       5.50129076      11.00258152      10.00000000
Pd       8.25193614      11.00258152      10.00000000
Pd      11.00258152      11.00258152      10.00000000
Pd       1.38593764       1.40320198      11.98672534
Pd       4.09890421       1.37642043      11.97132976
Pd       6.83540864       1.38701934      11.96002208
Pd       9.57512057       1.39592898      11.89594876
Pd      12.38684272       1.37174114      11.92044161
Pd       1.34408040       4.10427631      12.00698371
Pd       4.08369981       4.10659874      11.95494154
Pd       6.85261589       4.14708221      11.96085622
Pd       9.56728621       4.13975942      11.94281254
Pd      12.36578195       4.13265160      11.93417299
Pd       1.37110082       6.89256210      11.94010419
Pd       4.13935064       6.87026939      11.96482277
Pd       6.87097415       6.85831372      11.95140951
Pd       9.64205429       6.82915781      11.94515418
Pd      12.39111484       6.85622887      11.94896407
Pd       1.41036495       9.61027773      11.99129410
Pd       4.11777592       9.66324146      11.95099537
Pd       6.89476706       9.64088005      11.95142944
Pd       9.64982872       9.59779534      11.89439304
Pd      12.42487279       9.60955999      11.94161946
Pd       1.40643953      12.39832735      11.97487886
Pd       4.13218064      12.37352311      12.01838127
Pd       6.86816975      12.39901143      11.97280504
Pd       9.63028672      12.36702810      11.91406436
Pd      12.38352621      12.40545663      11.96549304
Pd       2.82908824       0.04402833      14.04075264
Pd       5.52273346       0.10454322      14.01693890
Pd       5.59053697       8.21579032      13.99214357
Pd      10.90362248      13.72526622      14.00519270
Pd       0.15506485       0.02750742      13.98249729
Pd      13.67227980       2.85456285      14.05817448
Pd       2.68262306       2.75456193      14.12093405
Pd       8.22839999       0.03326174      13.93254096
Pd       8.18204063       2.78494914      13.95272405
Pd      10.86223917       2.77538725      13.97704118
Pd       0.04364264       5.57745224      13.94579425
Pd       2.71828142       5.47837035      13.94204042
Pd       5.42201461       2.79569279      13.91564362
Pd       8.27194707       5.52103683      14.07068918
Pd      11.03537415       5.49296964      13.94059111
Pd      13.75287551       8.29551444      14.03589070
Pd       2.85667154       8.25090100      14.01390232
Pd       5.47611668       5.51158267      13.93337490
Pd       8.26665767       8.26009688      13.90506287
Pd      10.98119987       8.20687366      13.95914324
Pd      13.74571982      11.01928548      13.89569472
Pd       0.20894513       9.92620680      16.36752652
Pd       8.28406625      10.98315133      13.93840005
Pd       5.79354699      12.22755611      17.12469225
Pd      11.03104938      10.95092306      13.90215424
Pd      12.23929986       7.28161677      16.29052418
Pd       6.89568445       9.66820427      16.47459987
Pd       2.38509959      12.72072941      16.71938086
Pd      13.71435869       4.72126771      16.55999713
Pd      10.41055537       9.44727405      16.35693510
Pd       9.31040189       2.04803248      16.35644496
Pd       4.21112341       1.80705520      16.40164027
Pd       3.63436959       9.85531992      16.75551837
Pd       5.53106704      10.83612884      14.02594352
Pd       9.29483193      12.36764229      16.26088481
Pd       1.15161470       1.85098277      16.67798448
Pd       3.16900465       4.44479993      16.44968683
Pd      10.01740066       4.71504287      16.32827029
Pd       2.70776765      11.00693480      14.03182083
Pd       5.16369574       7.17223642      16.60866956
Pd       6.90394810       0.97456669      16.31522286
Pd       8.65774426       7.23110016      16.27589802
Pd       6.73279751       4.50905854      16.45670346
Pd      12.77169015      12.43974291      16.09949783
Pd       1.42444138       6.91324268      15.98302946
O        8.48944364       3.72828339      17.02225571
O        8.62931309      10.44810646      15.97211900
O       11.07694547      11.45529275      15.95448495
O       12.31210663       1.31688728      14.53319352
O       10.23006530       0.35818347      16.05252044
O        3.26824937       7.95633388      16.08285009
O        5.11909049      12.34422257      15.22494913
O        0.63788942      13.61981906      16.11877208
O        7.58016785      13.04644007      17.01138976
O        1.98908153      10.81063846      16.05136913
O        2.75709561       0.85068340      17.31273077
O        1.56420402       3.75570442      17.30499478
O        7.01349614       6.40121776      17.09279529
O        5.31279333       8.97723727      17.38855841
O        4.91355411       5.28803303      15.94629448
O       13.31277487       2.81752726      16.09339415
O       11.87255188       5.38431477      15.93920683
O       12.29493978       9.08249209      16.96251638
O        5.97635714       2.68352101      15.91168928
O        3.95304465      11.67774106      17.52750178
115
Lattice="13.75323 0.0 0.0 0.0 13.75323 0.0 0.0 0.0 23.89" Properties=species:S:1:pos:R:3 entry_id=35 rank=1 energy=-575.2415771484375 parent_id=34 pbc="T T F"
Pd       0.00000000       0.00000000      10.00000000
Pd       2.75064538       0.00000000      10.00000000
Pd       5.50129076       0.00000000      10.00000000
Pd       8.25193614       0.00000000      10.00000000
Pd      11.00258152       0.00000000      10.00000000
Pd       0.00000000       2.75064538      10.00000000
Pd       2.75064538       2.75064538      10.00000000
Pd       5.50129076       2.75064538      10.00000000
Pd       8.25193614       2.75064538      10.00000000
Pd      11.00258152       2.75064538      10.00000000
Pd       0.00000000       5.50129076      10.00000000
Pd       2.75064538       5.50129076      10.00000000
Pd       5.50129076       5.50129076      10.00000000
Pd       8.25193614       5.50129076      10.00000000
Pd      11.00258152       5.50129076      10.00000000
Pd       0.00000000       8.25193614      10.00000000
Pd       2.75064538       8.25193614      10.00000000
Pd       5.50129076       8.25193614      10.00000000
Pd       8.25193614       8.25193614      10.00000000
Pd      11.00258152       8.25193614      10.00000000
Pd       0.00000000      11.00258152      10.00000000
Pd       2.75064538      11.00258152      10.00000000
Pd       5.50129076      11.00258152      10.00000000
Pd       8.25193614      11.00258152      10.00000000
Pd      11.00258152      11.00258152      10.00000000
Pd       1.38327769       1.38295872      11.98118576
Pd       4.13362959       1.38580100      11.99157678
Pd       6.84265743       1.37894548      11.97118373
Pd       9.57512057       1.39592898      11.89594876
Pd      12.38684272       1.37174114      11.92044161
Pd       1.34884788       4.11965818      11.94933132
Pd       4.09021801       4.09135478      11.98031496
Pd       6.82381196       4.09884784      11.95853031
Pd       9.56728621       4.13975942      11.94281254
Pd      12.36578195       4.13265160      11.93417299
Pd       1.37110082       6.89256210      11.94010419
Pd       4.13935064       6.87026939      11.96482277
Pd       6.87097415       6.85831372      11.95140951
Pd       9.64205429       6.82915781      11.94515418
Pd      12.39111484       6.85622887      11.94896407
Pd       1.37895414       9.63622051      11.96524293
Pd       4.11777592       9.66324146      11.95099537
Pd       6.89476706       9.64088005      11.95142944
Pd       9.64982872       9.59779534      11.89439304
Pd      12.42487279       9.60955999      11.94161946
Pd       1.38001577      12.41247673      11.96351026
Pd       4.15430150      12.40413713      11.96200460
Pd       6.86816975      12.39901143      11.97280504
Pd       9.63028672      12.36702810      11.91406436
Pd      12.38578312      12.39545888      11.97691533
Pd       2.89570472       0.02967141      13.97313623
Pd       5.60323356       0.02557978      14.06368589
Pd       5.57906412       8.23623646      13.99132316
Pd      11.03675462       0.05847123      13.97024230
Pd       0.02911353       0.07075747      13.98209924
Pd      13.65600410       2.76858875      14.05416747
Pd       2.66823443       2.79107605      13.97810534
Pd       8.32599291       0.05536172      13.95096705
Pd       8.20326289       2.76170360      13.90644331
Pd      10.97080277       2.76727662      13.95996725
Pd      13.73951278       5.49894741      13.92036143
Pd       2.74192308       5.55843958      13.90556089
Pd       5.43073982       2.72860978      14.10072972
Pd       8.18634388       5.49330747      13.94404932
Pd      10.96641645       5.51313701      14.04326309
Pd      13.74187851       8.22816725      13.95555648
Pd       2.74235459       8.29924586      14.01942859
Pd       5.43338703       5.45987718      13.92680916
Pd       8.34040271       8.20031342      13.99390045
Pd      11.02609344       8.27096152      13.89353611
Pd      13.74253671      11.00354425      13.94301666
Pd       2.78175493       9.93236039      16.35206652
Pd       8.24505116      10.84016419      13.99598391
Pd       8.35848148      12.22755541      17.09777473
Pd      10.97811262      11.01350981      13.90678199
Pd       1.11949648       7.26943710      16.28025524
Pd       9.47132051       9.66071562      16.45015260
Pd       4.96678510      12.70766669      16.68863668
Pd       2.47707248       4.62599702      16.46461277
Pd      12.98842369       9.41899283      16.31630703
Pd      11.87298591       2.10753950      16.57348971
Pd       6.80595885       1.79330366      16.41593443
Pd       6.20457159       9.84591925      16.74088794
Pd       5.43560245      10.98675157      14.01544634
Pd      11.86115864      12.32896445      16.39243125
Pd       3.67228945       1.79332642      16.55961972
Pd       5.70141822       4.40019988      16.42795458
Pd      12.56539948       4.75347022      16.28684275
Pd       2.71542715      11.03112823      13.89555215
Pd       7.69921565       7.16249215      16.60271518
Pd       9.51880644       0.96184516      16.32045758
Pd      11.11680988       7.23809434      16.27129474
Pd       9.25764512       4.51235581      16.47686663
Pd       1.57702562      12.42683369      16.09502948
Pd       4.04412427       6.82162456      15.95566755
O       11.03444906       3.82413383      17.04915624
O       11.19915838      10.44452665      15.91545210
O       13.62205708      11.44536726      15.99993101
O        0.32361409       0.43161019      16.02494188
O       12.83101795       0.34167530      16.76181987
O        5.83593386       7.94452977      16.06848991
O        7.71009525      12.35395352      15.16998237
O        3.21697057      13.57287987      16.05547690
O       10.14825361      13.03655779      17.06421544
O        4.56971949      10.80311712      16.02463201
O        5.30317481       0.85608853      17.26240806
O        4.06552927       3.67670941      17.19847709
O        9.51691486       6.39473311      17.13322302
O        7.88760678       8.97077013      17.37139619
O        7.44098801       5.27298828      15.94019071
O        2.02109009       2.69008452      15.88605854
O        0.68600865       5.38148066      15.91098205
O        1.12342623       9.07443346      16.94906629
O        8.56903425       2.66579656      15.92927754
O        6.52500555      11.67086472      17.49955178
115
Lattice="13.75323 0.0 0.0 0.0 13.75323 0.0 0.0 0.0 23.89" Properties=species:S:1:pos:R:3 entry_id=34 rank=2 energy=-575.0673828125 parent_id=31 pbc="T T F"
Pd       0.00000000       0.00000000      10.00000000
Pd       2.75064538       0.00000000      10.00000000
Pd       5.50129076       0.00000000      10.00000000
Pd       8.25193614       0.00000000      10.00000000
Pd      11.00258152       0.00000000      10.00000000
Pd       0.00000000       2.75064538      10.00000000
Pd       2.75064538       2.75064538      10.00000000
Pd       5.50129076       2.75064538      10.00000000
Pd       8.25193614       2.75064538      10.00000000
Pd      11.00258152       2.75064538      10.00000000
Pd       0.00000000       5.50129076      10.00000000
Pd       2.75064538       5.50129076      10.00000000
Pd       5.50129076       5.50129076      10.00000000
Pd       8.25193614       5.50129076      10.00000000
Pd      11.00258152       5.50129076      10.00000000
Pd       0.00000000       8.25193614      10.00000000
Pd       2.75064538       8.25193614      10.00000000
Pd       5.50129076       8.25193614      10.00000000
Pd       8.25193614       8.25193614      10.00000000
Pd      11.00258152       8.25193614      10.00000000
Pd       0.00000000      11.00258152      10.00000000
Pd       2.75064538      11.00258152      10.00000000
Pd       5.50129076      11.00258152      10.00000000
Pd       8.25193614      11.00258152      10.00000000
Pd      11.00258152      11.00258152      10.00000000
Pd       1.38669882       1.37964940      11.98304621
Pd       4.10804562       1.35984599      11.97365070
Pd       6.85053811       1.36813363      11.97648777
Pd       9.57512057       1.39592898      11.89594876
Pd      12.38684272       1.37174114      11.92044161
Pd       1.35385451       4.09636586      11.97684880
Pd       4.09396100       4.09582416      11.95590177
Pd       6.84974271       4.13881230      11.95953149
Pd       9.56728621       4.13975942      11.94281254
Pd      12.36578195       4.13265160      11.93417299
Pd       1.37110082       6.89256210      11.94010419
Pd       4.13935064       6.87026939      11.96482277
Pd       6.87097415       6.85831372      11.95140951
Pd       9.64205429       6.82915781      11.94515418
Pd      12.39111484       6.85622887      11.94896407
Pd       1.40472856       9.60620405      11.99980296
Pd       4.11777592       9.66324146      11.95099537
Pd       6.89476706       9.64088005      11.95142944
Pd       9.64982872       9.59779534      11.89439304
Pd      12.42487279       9.60955999      11.94161946
Pd       1.40818349      12.37586062      11.96677096
Pd       4.13152762      12.36610792      12.02200352
Pd       6.86816975      12.39901143      11.97280504
Pd       9.63028672      12.36702810      11.91406436
Pd      12.39304126      12.39631230      11.95534836
Pd       0.09688045       0.02771264      13.95759820
Pd       2.81882057       0.02198338      14.03561689
Pd       5.58526103       8.20448764      13.99256317
Pd       8.31566131       0.04069628      14.01086459
Pd      11.01439799       0.05834769      13.94220059
Pd      13.66855710       2.76943172      13.96203027
Pd       2.68573755       2.73020726      14.09072541
Pd       5.55298457       0.06142024      14.03458077
Pd       8.20897642       2.80073504      13.92831427
Pd      10.93866796       2.75592898      13.94773366
Pd       0.02085312       5.54819216      13.91138373
Pd       2.70618556       5.45993664      13.92218194
Pd       5.44090679       2.76127456      13.91371241
Pd       8.24183103       5.52671780      14.03726705
Pd      11.00935768       5.50879648      13.93233159
Pd      13.74624091       8.27814848      14.03914096
Pd       2.84470556       8.21940381      14.01801932
Pd       5.45639818       5.49162158      13.94693571
Pd       8.26842128       8.27503856      13.92076530
Pd      10.98654917       8.23896034      13.92881701
Pd      13.70732515      11.02846059      13.92285641
Pd       0.08927566       9.86574102      16.33935711
Pd       8.25999529      11.02753602      13.91695709
Pd       5.68656104      12.16907324      17.18370987
Pd      10.99204115      11.02128273      13.91136459
Pd      12.10018671       7.20783562      16.26111620
Pd       6.80831149       9.63549230      16.42481447
Pd       2.28788373      12.64430230      16.66693877
Pd      13.59274254       4.58205357      16.44608356
Pd      10.29437331       9.44743821      16.29605689
Pd       9.40266540       1.70917422      16.00694959
Pd       4.16596248       1.71757933      16.35571586
Pd       3.54776996       9.76345799      16.73163016
Pd       5.50816848      10.83005170      14.03074959
Pd       9.19971915      12.33222041      16.53435029
Pd       1.04052432       1.76164514      16.53870615
Pd       3.11418386       4.35529641      16.39760636
Pd       9.96273245       4.47183987      16.22663415
Pd       2.68337189      10.97707691      14.04310262
Pd       5.14115413       7.07878488      16.58479275
Pd       6.86238995       0.85763249      16.41915074
Pd       8.68328684       7.11044445      16.24785917
Pd       6.73774178       4.37575735      16.41518670
Pd      12.58954332      12.51872564      16.06638073
Pd       1.35971832       6.80959385      15.96155142
O        8.46662666       3.44850049      16.88011483
O        8.51586764      10.47481182      15.90989748
O       10.92399352      11.49281161      15.96217663
O       11.58660297       0.15675441      17.29197835
O       10.22824483       0.21715435      17.23826493
O        3.21369045       7.85394031      16.07614246
O        5.08345397      12.31849743      15.25428438
O        0.53688029      13.56762370      16.03016468
O        7.48232037      12.97561654      17.27417499
O        1.88599853      10.72560125      16.04538892
O        2.66046074       0.79414055      17.21657821
O        1.45750301       3.65186312      17.14915930
O        7.01273251       6.29284512      17.03068462
O        5.24864730       8.90024095      17.34284192
O        4.89257913       5.18497899      15.95920989
O       13.13482108       2.64062904      15.90171850
O       11.77192598       5.28997362      15.91787398
O       12.15969406       9.02410279      16.90275729
O        5.95638841       2.55816597      15.90861218
O        3.83754574      11.59505638      17.49925696
115
Lattice="13.75323 0.0 0.0 0.0 13.75323 0.0 0.0 0.0 23.89" Properties=species:S:1:pos:R:3 entry_id=31 rank=3 energy=-573.6143798828125 parent_id=30 pbc="T T F"
Pd       0.00000000       0.00000000      10.00000000
Pd       2.75064538       0.00000000      10.00000000
Pd       5.50129076       0.00000000      10.00000000
Pd       8.25193614       0.00000000      10.00000000
Pd      11.00258152       0.00000000      10.00000000
Pd       0.00000000       2.75064538      10.00000000
Pd       2.75064538       2.75064538      10.00000000
Pd       5.50129076       2.75064538      10.00000000
Pd       8.25193614       2.75064538      10.00000000
Pd      11.00258152       2.75064538      10.00000000
Pd       0.00000000       5.50129076      10.00000000
Pd       2.75064538       5.50129076      10.00000000
Pd       5.50129076       5.50129076      10.00000000
Pd       8.25193614       5.50129076      10.00000000
Pd      11.00258152       5.50129076      10.00000000
Pd       0.00000000       8.25193614      10.00000000
Pd       2.75064538       8.25193614      10.00000000
Pd       5.50129076       8.25193614      10.00000000
Pd       8.25193614       8.25193614      10.00000000
Pd      11.00258152       8.25193614      10.00000000
Pd       0.00000000      11.00258152      10.00000000
Pd       2.75064538      11.00258152      10.00000000
Pd       5.50129076      11.00258152      10.00000000
Pd       8.25193614      11.00258152      10.00000000
Pd      11.00258152      11.00258152      10.00000000
Pd       1.36759460       1.39148394      11.99367917
Pd       4.10426942       1.37246241      11.97149850
Pd       6.85537041       1.36207283      11.96324172
Pd       9.57512057       1.39592898      11.89594876
Pd      12.38684272       1.37174114      11.92044161
Pd       1.38848129       4.09798650      11.99709221
Pd       4.13180876       4.11993634      11.98378811
Pd       6.85190102       4.12218026      11.97724782
Pd       9.56728621       4.13975942      11.94281254
Pd      12.36578195       4.13265160      11.93417299
Pd       1.37110082       6.89256210      11.94010419
Pd       4.13935064       6.87026939      11.96482277
Pd       6.87097415       6.85831372      11.95140951
Pd       9.64205429       6.82915781      11.94515418
Pd      12.39111484       6.85622887      11.94896407
Pd       1.37393230       9.66001085      11.98674863
Pd       4.11777592       9.66324146      11.95099537
Pd       6.89476706       9.64088005      11.95142944
Pd       9.64982872       9.59779534      11.89439304
Pd      12.42487279       9.60955999      11.94161946
Pd       1.37899371      12.38306331      12.01011111
Pd       4.09825929      12.39925199      11.98669798
Pd       6.86816975      12.39901143      11.97280504
Pd       9.63028672      12.36702810      11.91406436
Pd      12.37454863      12.34946711      11.98068721
Pd      13.65962284       0.01232865      13.93954216
Pd       2.63946070       0.02314879      14.06488575
Pd       5.50918229      10.95260914      13.94202055
Pd       8.25679545      13.74142064      13.99375625
Pd      10.97444863       0.00487734      13.93587641
Pd       0.02990131       2.74599366      14.08002716
Pd       2.78082123       2.80445575      14.09179200
Pd       5.58659927       2.78108661      13.97874863
Pd       8.29427259       2.78078598      13.92060357
Pd      11.07008362       2.75918795      13.81522892
Pd       0.00170607       5.52284019      13.88898046
Pd       2.75290171       5.50989343      13.96055384
Pd       5.51273756       5.48649394      14.03090576
Pd       8.24993416       5.53253607      13.97086756
Pd      10.98670191       5.45340117      14.03694619
Pd       0.02154586       8.26693973      14.02640091
Pd       2.72708556       8.27065431      13.89592014
Pd       5.45075094       8.23111477      14.00833199
Pd       8.21162787       8.26507814      13.94123498
Pd      11.01515693       8.24365799      13.96091416
Pd      13.73612044      11.02238426      14.05473662
Pd       1.48449312       9.62694655      16.10201176
Pd       8.24162894      11.00128510      13.89014214
Pd       6.85161930      12.03225302      15.93889095
Pd      10.94384655      11.02893316      13.91475636
Pd      12.65254363       6.77195314      16.08389241
Pd       8.40867783       9.70454567      16.33644587
Pd       3.42624535      12.76924625      16.74184295
Pd       1.16950002       4.90833454      16.13336438
Pd      11.91390349       9.69978391      16.09874525
Pd       9.74022556       1.59609983      15.74149525
Pd       4.99124971       1.87403139      16.88586316
Pd       4.97943902       9.94480262      16.60830590
Pd       5.48969914      13.67244489      14.02097827
Pd      10.39535830      12.52303713      16.71443628
Pd       1.83821805       1.89163748      16.73494924
Pd       4.08032503       4.46400564      16.53752919
Pd      11.74478026       3.25421482      16.58641102
Pd       2.78953962      11.02852733      14.02635352
Pd       6.48268016       7.13067320      16.54287805
Pd       7.47777646       0.79360661      16.55303558
Pd       9.63226832       7.11022953      15.89835266
Pd       7.80011092       4.27116984      16.46653564
Pd       0.05806465      12.55407188      16.34406997
Pd       2.89333257       6.97044163      16.20127793
O        9.62145638       3.27428488      16.85894225
O       10.11921873      10.65498002      15.91430663
O       12.21849487      11.66555988      16.93384117
O       11.94920843       1.35378268      17.30644092
O       10.72153693       0.71046761      17.36907939
O        4.69464433       8.00015458      16.04117597
O        4.26631323       1.41340120      14.89762508
O        1.68465822      13.64886681      16.07177647
O        8.37567810      12.88206386      17.03593531
O        3.13548262      10.77758342      16.08495846
O        3.44424907       0.91167240      17.54173065
O        2.39106778       3.75612299      17.28130804
O        8.23670877       6.18375748      16.99712172
O        6.75815471       9.02559369      17.13620581
O        5.92275013       5.21934020      16.07942728
O        0.03804218       3.05288775      16.13128708
O       11.53571826       5.16759424      15.99455650
O       13.55120233       8.56900975      16.26979358
O        6.70699224       2.56105712      16.07990285
O        5.20305662      11.85203195      17.18147998
115
Lattice="13.75323 0.0 0.0 0.0 13.75323 0.0 0.0 0.0 23.89" Properties=species:S:1:pos:R:3 entry_id=30 rank=4 energy=-573.6132202148438 parent_id=29 pbc="T T F"
Pd       0.00000000       0.00000000      10.00000000
Pd       2.75064538       0.00000000      10.00000000
Pd       5.50129076       0.00000000      10.00000000
Pd       8.25193614       0.00000000      10.00000000
Pd      11.00258152       0.00000000      10.00000000
Pd       0.00000000       2.75064538      10.00000000
Pd       2.75064538       2.75064538      10.00000000
Pd       5.50129076       2.75064538      10.00000000
Pd       8.25193614       2.75064538      10.00000000
Pd      11.00258152       2.75064538      10.00000000
Pd       0.00000000       5.50129076      10.00000000
Pd       2.75064538       5.50129076      10.00000000
Pd       5.50129076       5.50129076      10.00000000
Pd       8.25193614       5.50129076      10.00000000
Pd      11.00258152       5.50129076      10.00000000
Pd       0.00000000       8.25193614      10.00000000
Pd       2.75064538       8.25193614      10.00000000
Pd       5.50129076       8.25193614      10.00000000
Pd       8.25193614       8.25193614      10.00000000
Pd      11.00258152       8.25193614      10.00000000
Pd       0.00000000      11.00258152      10.00000000
Pd       2.75064538      11.00258152      10.00000000
Pd       5.50129076      11.00258152      10.00000000
Pd       8.25193614      11.00258152      10.00000000
Pd      11.00258152      11.00258152      10.00000000
Pd       1.36962598       1.39515883      11.99642552
Pd       4.10660451       1.37315762      11.97385067
Pd       6.85788060       1.36504391      11.96479272
Pd       9.57512057       1.39592898      11.89594876
Pd      12.38684272       1.37174114      11.92044161
Pd       1.38696662       4.10054708      11.99625286
Pd       4.13145864       4.11858604      11.98261690
Pd       6.85337390       4.12470374      11.97923394
Pd       9.56728621       4.13975942      11.94281254
Pd      12.36578195       4.13265160      11.93417299
Pd       1.37110082       6.89256210      11.94010419
Pd       4.13935064       6.87026939      11.96482277
Pd       6.87097415       6.85831372      11.95140951
Pd       9.64205429       6.82915781      11.94515418
Pd      12.39111484       6.85622887      11.94896407
Pd       1.37297466       9.66021610      11.98489002
Pd       4.11777592       9.66324146      11.95099537
Pd       6.89476706       9.64088005      11.95142944
Pd       9.64982872       9.59779534      11.89439304
Pd      12.42487279       9.60955999      11.94161946
Pd       1.38200735      12.38477054      12.01022294
Pd       4.09975842      12.40271188      11.98648848
Pd       6.86816975      12.39901143      11.97280504
Pd       9.63028672      12.36702810      11.91406436
Pd      12.37567906      12.34969298      11.97744960
Pd      13.66022236       0.01493910      13.93548788
Pd       2.64209376       0.02603228      14.06740693
Pd       5.51368288      10.95545095      13.94063852
Pd       8.25934335      13.74432943      13.99323825
Pd      10.97629328       0.00106494      13.93865056
Pd       0.03409970       2.75012457      14.08283578
Pd       2.78443915       2.80399109      14.09232616
Pd       5.59098142       2.78358128      13.97776339
Pd       8.29914948       2.78414590      13.92674152
Pd      11.07438991       2.75507744      13.81327371
Pd       0.00073148       5.52984807      13.89074217
Pd       2.75276883       5.50970502      13.95812703
Pd       5.51228211       5.48643342      14.02966149
Pd       8.25087812       5.53399416      13.97312765
Pd      10.98926706       5.44832466      14.03820413
Pd       0.02546809       8.27418535      14.02997038
Pd       2.73188682       8.27157648      13.88884469
Pd       5.45558914       8.22984283      14.00586384
Pd       8.21641345       8.26382731      13.94467108
Pd      11.01884776       8.24276894      13.96380935
Pd      13.74469684      11.02770484      14.05361592
Pd       1.51173475       9.62896783      16.10301128
Pd       8.24691880      11.00094205      13.88690177
Pd       6.86864034      12.03577639      15.93345626
Pd      10.94960641      11.02557221      13.91200016
Pd      12.66358476       6.77979470      16.09047356
Pd       8.43753187       9.70868113      16.33077016
Pd       3.45644003      12.76887309      16.74439142
Pd       1.17734573       4.90732269      16.12974247
Pd      11.94901246       9.71385995      16.09562988