115
Lattice="13.75323 0.0 0.0 0.0 13.75323 0.0 0.0 0.0 23.89" Properties=species:S:1:pos:R:3 entry_id=36 rank=0 energy=-575.3966674804688 parent_id=35 pbc="T T F"
Pd       0.00000000       0.00000000      10.00000000
Pd       2.75064538       0.00000000      10.00000000
Pd       5.50129076       0.00000000      10.00000000
Pd       8.25193614       0.00000000      10.00000000
Pd      11.00258152       0.00000000      10.00000000
Pd       0.00000000       2.75064538      10.00000000
Pd       2.75064538       2.75064538      10.00000000
Pd       5.50129076       2.75064538      10.00000000
Pd       8.25193614       2.75064538      10.00000000
Pd      11.00258152       2.75064538      10.00000000
Pd       0.00000000       5.50129076      10.00000000
Pd       2.75064538       5.50129076      10.00000000
Pd       5.50129076       5.50129076      10.00000000
Pd       8.25193614       5.50129076      10.00000000
Pd      11.00258152       5.50129076      10.00000000
Pd       0.00000000       8.25193614      10.00000000
Pd       2.75064538       8.25193614      10.00000000
Pd       5.50129076       8.25193614      10.00000000
Pd       8.25193614       8.25193614      10.00000000
Pd      11.00258152       8.25193614      10.00000000
Pd       0.00000000      11.00258152      10.00000000
Pd       2.75064538      11.00258152      10.00000000
Pd       5.50129076      11.00258152      10.00000000
Pd       8.25193614      11.00258152      10.00000000
Pd      11.00258152      11.00258152      10.00000000
Pd       1.38593764       1.40320198      11.98672534
Pd       4.09890421       1.37642043      11.97132976
Pd       6.83540864       1.38701934      11.96002208
Pd       9.57512057       1.39592898      11.89594876
Pd      12.38684272       1.37174114      11.92044161
Pd       1.34408040       4.10427631      12.00698371
Pd       4.08369981       4.10659874      11.95494154
Pd       6.85261589       4.14708221      11.96085622
Pd       9.56728621       4.13975942      11.94281254
Pd      12.36578195       4.13265160      11.93417299
Pd       1.37110082       6.89256210      11.94010419
Pd       4.13935064       6.87026939      11.96482277
Pd       6.87097415       6.85831372      11.95140951
Pd       9.64205429       6.82915781      11.94515418
Pd      12.39111484       6.85622887      11.94896407
Pd       1.41036495       9.61027773      11.99129410
Pd       4.11777592       9.66324146      11.95099537
Pd       6.89476706       9.64088005      11.95142944
Pd       9.64982872       9.59779534      11.89439304
Pd      12.42487279       9.60955999      11.94161946
Pd       1.40643953      12.39832735      11.97487886
Pd       4.13218064      12.37352311      12.01838127
Pd       6.86816975      12.39901143      11.97280504
Pd       9.63028672      12.36702810      11.91406436
Pd      12.38352621      12.40545663      11.96549304
Pd       2.82908824       0.04402833      14.04075264
Pd       5.52273346       0.10454322      14.01693890
Pd       5.59053697       8.21579032      13.99214357
Pd      10.90362248      13.72526622      14.00519270
Pd       0.15506485       0.02750742      13.98249729
Pd      13.67227980       2.85456285      14.05817448
Pd       2.68262306       2.75456193      14.12093405
Pd       8.22839999       0.03326174      13.93254096
Pd       8.18204063       2.78494914      13.95272405
Pd      10.86223917       2.77538725      13.97704118
Pd       0.04364264       5.57745224      13.94579425
Pd       2.71828142       5.47837035      13.94204042
Pd       5.42201461       2.79569279      13.91564362
Pd       8.27194707       5.52103683      14.07068918
Pd      11.03537415       5.49296964      13.94059111
Pd      13.75287551       8.29551444      14.03589070
Pd       2.85667154       8.25090100      14.01390232
Pd       5.47611668       5.51158267      13.93337490
Pd       8.26665767       8.26009688      13.90506287
Pd      10.98119987       8.20687366      13.95914324
Pd      13.74571982      11.01928548      13.89569472
Pd       0.20894513       9.92620680      16.36752652
Pd       8.28406625      10.98315133      13.93840005
Pd       5.79354699      12.22755611      17.12469225
Pd      11.03104938      10.95092306      13.90215424
Pd      12.23929986       7.28161677      16.29052418
Pd       6.89568445       9.66820427      16.47459987
Pd       2.38509959      12.72072941      16.71938086
Pd      13.71435869       4.72126771      16.55999713
Pd      10.41055537       9.44727405      16.35693510
Pd       9.31040189       2.04803248      16.35644496
Pd       4.21112341       1.80705520      16.40164027
Pd       3.63436959       9.85531992      16.75551837
Pd       5.53106704      10.83612884      14.02594352
Pd       9.29483193      12.36764229      16.26088481
Pd       1.15161470       1.85098277      16.67798448
Pd       3.16900465       4.44479993      16.44968683
Pd      10.01740066       4.71504287      16.32827029
Pd       2.70776765      11.00693480      14.03182083
Pd       5.16369574       7.17223642      16.60866956
Pd       6.90394810       0.97456669      16.31522286
Pd       8.65774426       7.23110016      16.27589802
Pd       6.73279751       4.50905854      16.45670346
Pd      12.77169015      12.43974291      16.09949783
Pd       1.42444138       6.91324268      15.98302946
O        8.48944364       3.72828339      17.02225571
O        8.62931309      10.44810646      15.97211900
O       11.07694547      11.45529275      15.95448495
O       12.31210663       1.31688728      14.53319352
O       10.23006530       0.35818347      16.05252044
O        3.26824937       7.95633388      16.08285009
O        5.11909049      12.34422257      15.22494913
O        0.63788942      13.61981906      16.11877208
O        7.58016785      13.04644007      17.01138976
O        1.98908153      10.81063846      16.05136913
O        2.75709561       0.85068340      17.31273077
O        1.56420402       3.75570442      17.30499478
O        7.01349614       6.40121776      17.09279529
O        5.31279333       8.97723727      17.38855841
O        4.91355411       5.28803303      15.94629448
O       13.31277487       2.81752726      16.09339415
O       11.87255188       5.38431477      15.93920683
O       12.29493978       9.08249209      16.96251638
O        5.97635714       2.68352101      15.91168928
O        3.95304465      11.67774106      17.52750178
