115
Lattice="13.75323 0.0 0.0 0.0 13.75323 0.0 0.0 0.0 23.89" Properties=species:S:1:pos:R:3 entry_id=10 rank=6 energy=-572.2772216796875 parent_id=9 pbc="T T F"
Pd       0.00000000       0.00000000      10.00000000
Pd       2.75064538       0.00000000      10.00000000
Pd       5.50129076       0.00000000      10.00000000
Pd       8.25193614       0.00000000      10.00000000
Pd      11.00258152       0.00000000      10.00000000
Pd       0.00000000       2.75064538      10.00000000
Pd       2.75064538       2.75064538      10.00000000
Pd       5.50129076       2.75064538      10.00000000
Pd       8.25193614       2.75064538      10.00000000
Pd      11.00258152       2.75064538      10.00000000
Pd       0.00000000       5.50129076      10.00000000
Pd       2.75064538       5.50129076      10.00000000
Pd       5.50129076       5.50129076      10.00000000
Pd       8.25193614       5.50129076      10.00000000
Pd      11.00258152       5.50129076      10.00000000
Pd       0.00000000       8.25193614      10.00000000
Pd       2.75064538       8.25193614      10.00000000
Pd       5.50129076       8.25193614      10.00000000
Pd       8.25193614       8.25193614      10.00000000
Pd      11.00258152       8.25193614      10.00000000
Pd       0.00000000      11.00258152      10.00000000
Pd       2.75064538      11.00258152      10.00000000
Pd       5.50129076      11.00258152      10.00000000
Pd       8.25193614      11.00258152      10.00000000
Pd      11.00258152      11.00258152      10.00000000
Pd       1.41300814       1.34893775      11.99047678
Pd       4.11300564       1.34178231      12.01216741
Pd       6.85998561       1.38230953      11.96125845
Pd       9.57512057       1.39592898      11.89594876
Pd      12.38684272       1.37174114      11.92044161
Pd       1.41585590       4.11415718      11.95315494
Pd       4.16170928       4.09429985      11.96898563
Pd       6.84431783       4.15166319      11.98157988
Pd       9.56728621       4.13975942      11.94281254
Pd      12.36578195       4.13265160      11.93417299
Pd       1.37110082       6.89256210      11.94010419
Pd       4.13935064       6.87026939      11.96482277
Pd       6.87097415       6.85831372      11.95140951
Pd       9.64205429       6.82915781      11.94515418
Pd      12.39111484       6.85622887      11.94896407
Pd       1.37381179       9.60693808      11.97682238
Pd       4.11777592       9.66324146      11.95099537
Pd       6.89476706       9.64088005      11.95142944
Pd       9.64982872       9.59779534      11.89439304
Pd      12.42487279       9.60955999      11.94161946
Pd       1.36511575      12.36931040      11.97899132
Pd       4.13158756      12.39075019      12.01485363
Pd       6.86816975      12.39901143      11.97280504
Pd       9.63028672      12.36702810      11.91406436
Pd      12.37962833      12.37529320      11.96718959
Pd       0.06185679       2.75823658      13.86533941
Pd       2.68241792      13.69896088      14.05131064
Pd       5.46108032      13.71517698      14.09745830
Pd       8.22865303       0.12108594      13.94923176
Pd      10.94539577       0.03778198      13.95765896
Pd       8.33696723       2.83849858      13.92905712
Pd      11.07787977       2.74175953      13.93674046
Pd      13.74909556       5.45499736      13.92642515
Pd       1.24604081       1.83722371      16.08995750
Pd       5.55288903       2.67848112      13.93299895
Pd       0.07385578       8.23855642      14.04677747
Pd       2.83857788       2.75059027      14.10271985
Pd       2.80622161       8.17072405      13.97225980
Pd       8.23693001       5.52587104      13.95780810
Pd      11.02156742       5.53918164      13.97078600
Pd      13.71391791      11.00299419      14.00387585
Pd       5.56176326       8.27102092      13.94839694
Pd       2.86559465       5.40476487      13.88488827
Pd       8.29517834       8.24879288      13.91041221
Pd      11.06113118       8.30355095      14.00459859
Pd      13.65790353      13.73822394      13.97002613
Pd       2.66579194      10.91382237      13.94270117
Pd       5.39904987      10.96317213      14.05270564
Pd       8.16172952      10.96590384      13.96109080
Pd      10.93945354      11.06622982      13.85997251
Pd      12.51336637       6.88735040      16.17734216
Pd       8.98840134       9.47097685      16.35590461
Pd       0.80169901      12.31612616      16.59709891
Pd       1.51971376       6.36384039      15.91362606
Pd      12.03121562       9.92874176      16.09035623
Pd       7.15206162       1.77331317      16.11309254
Pd       3.70436579       1.01676122      16.52329993
Pd       5.39314373       9.24185041      16.62420110
Pd       3.79603424      11.30640458      16.34077304
Pd       9.85420323      12.67921105      16.58437665
Pd      13.31170931       3.84718694      16.41018517
Pd       2.68635360       3.82017654      17.04445564
Pd      10.09007809       4.23108869      16.27447818
Pd       1.83340734       8.86147244      16.46670613
Pd       6.99666229       6.80041978      16.05975057
Pd       6.35677263      12.10204916      16.41458724
Pd       9.74171271       6.88565552      15.92796906
Pd       5.22569547       3.98767880      16.16960585
Pd      11.83473986       0.85303422      16.76092872
Pd       4.29592097       6.71312038      15.85841937
O        8.38160806       3.31121988      15.87554794
O       10.32582479      10.89090448      15.86921981
O       13.65260816       0.27075037      16.03163836
O       10.13375333       1.48050545      17.65361559
O        9.09694328       0.65668135      17.32407687
O        3.68657524       8.29260628      16.93399924
O        2.73172749      13.07103532      16.05132437
O       11.66415042      12.74677131      17.57151242
O        8.20805967      12.50848005      15.47270327
O        1.95517110      10.79144560      17.16054875
O       12.70288437      11.68183914      17.19318176
O        1.05575279       4.87457241      17.16835811
O        5.80060702       5.53138647      15.13780325
O        8.32202397       7.78222957      17.10008763
O        4.30475778       2.71144739      17.32223950
O       11.78063842       2.66987259      15.90288320
O       11.74951141       5.17729211      16.87431190
O       13.56506868       8.70720342      16.13803953
O        5.79053477       0.27832582      16.19980190
O        7.02123840      10.30315403      16.82657300
