115
Lattice="13.75323 0.0 0.0 0.0 13.75323 0.0 0.0 0.0 23.89" Properties=species:S:1:pos:R:3 entry_id=6 rank=4 energy=-572.6288452148438 parent_id=5 pbc="T T F"
Pd       0.00000000       0.00000000      10.00000000
Pd       2.75064538       0.00000000      10.00000000
Pd       5.50129076       0.00000000      10.00000000
Pd       8.25193614       0.00000000      10.00000000
Pd      11.00258152       0.00000000      10.00000000
Pd       0.00000000       2.75064538      10.00000000
Pd       2.75064538       2.75064538      10.00000000
Pd       5.50129076       2.75064538      10.00000000
Pd       8.25193614       2.75064538      10.00000000
Pd      11.00258152       2.75064538      10.00000000
Pd       0.00000000       5.50129076      10.00000000
Pd       2.75064538       5.50129076      10.00000000
Pd       5.50129076       5.50129076      10.00000000
Pd       8.25193614       5.50129076      10.00000000
Pd      11.00258152       5.50129076      10.00000000
Pd       0.00000000       8.25193614      10.00000000
Pd       2.75064538       8.25193614      10.00000000
Pd       5.50129076       8.25193614      10.00000000
Pd       8.25193614       8.25193614      10.00000000
Pd      11.00258152       8.25193614      10.00000000
Pd       0.00000000      11.00258152      10.00000000
Pd       2.75064538      11.00258152      10.00000000
Pd       5.50129076      11.00258152      10.00000000
Pd       8.25193614      11.00258152      10.00000000
Pd      11.00258152      11.00258152      10.00000000
Pd       1.42295665       1.37659663      11.99545357
Pd       4.09295218       1.37682379      12.03559482
Pd       6.82266425       1.39409418      11.98247781
Pd       9.57512057       1.39592898      11.89594876
Pd      12.38684272       1.37174114      11.92044161
Pd       1.42147607       4.13476839      11.96768571
Pd       4.08247933       4.09667468      11.97339969
Pd       6.80128280       4.13981593      11.98558433
Pd       9.56728621       4.13975942      11.94281254
Pd      12.36578195       4.13265160      11.93417299
Pd       1.37110082       6.89256210      11.94010419
Pd       4.13935064       6.87026939      11.96482277
Pd       6.87097415       6.85831372      11.95140951
Pd       9.64205429       6.82915781      11.94515418
Pd      12.39111484       6.85622887      11.94896407
Pd       1.38810338       9.60204855      11.96655174
Pd       4.11777592       9.66324146      11.95099537
Pd       6.89476706       9.64088005      11.95142944
Pd       9.64982872       9.59779534      11.89439304
Pd      12.42487279       9.60955999      11.94161946
Pd       1.38323400      12.37854261      11.98666966
Pd       4.11748879      12.38471976      12.01096112
Pd       6.86816975      12.39901143      11.97280504
Pd       9.63028672      12.36702810      11.91406436
Pd      12.38974953      12.38420785      11.95103483
Pd      13.69580357      13.72058394      13.96379746
Pd       2.75448726      13.66433488      14.03379364
Pd       5.48487782      13.74231264      14.04518162
Pd       8.23668518       0.10282344      13.90879986
Pd      10.96194326       0.09395271      13.93599001
Pd       8.20741605       2.78022053      13.88584752
Pd      10.92296388       2.82435636      13.90926310
Pd       0.04930797       2.75213664      13.80136379
Pd       1.48554486       1.80263307      15.75539674
Pd       5.38685167       2.67466638      14.08899864
Pd       0.04946177       5.49002273      13.88790352
Pd       2.76558670       3.78828966      14.39995028
Pd       5.23697251       5.43403458      13.94340839
Pd       8.19760939       5.52194987      14.03008860
Pd      11.02375850       5.58732194      13.96296904
Pd       0.14601123       8.24600164      14.03096135
Pd       2.89102847       8.08899626      13.97421616
Pd       5.59352158       8.19664831      13.98143429
Pd       8.33490837       8.24005785      13.91655830
Pd      11.11816109       8.36395288      14.01681048
Pd      13.75104706      11.00844803      13.96465321
Pd       2.67255606      10.84589092      13.97330390
Pd       5.42793350      10.98588487      13.97841003
Pd       8.26593351      10.94745735      14.00856454
Pd      10.98396044      11.12847223      13.89297727
Pd      12.58281478       6.76888189      16.13750370
Pd       9.47152147       9.65430597      16.19973746
Pd       0.93115092      12.33396087      16.58073501
Pd       1.92706259       6.24286755      15.61748252
Pd      12.26150612      10.02547225      16.10980580
Pd       7.30058185       2.12970791      16.37394119
Pd       4.40491930       0.61517113      16.60453314
Pd       5.21113461       9.50100021      16.38808436
Pd       3.86886771      11.72773834      16.19757763
Pd       9.92264670      13.08871136      16.61309335
Pd      13.64491547       4.00470982      16.31044256
Pd       2.59115015       3.72229970      17.26292607
Pd      10.12316656       4.27330077      16.23493068
Pd       1.88591465       8.81028396      16.48423902
Pd       7.13717691       6.99689818      16.23013012
Pd       6.45855690      12.54326003      16.37233688
Pd       9.82665254       6.92456173      15.92477648
Pd       5.13888957       3.77277133      16.60451967
Pd      11.98014271       1.19016211      16.60042050
Pd       4.44208627       6.86683208      16.34007822
O        8.30678029       3.71314979      15.69846533
O       10.65755504      11.24004282      15.95469915
O       13.69742179       0.27696627      16.02206479
O       10.29604457       2.16446751      17.20968228
O        9.20162828       1.25132589      17.14664453
O        3.70833813       8.49669836      17.15227777
O        2.52997054       0.04420892      16.14731563
O       11.42393939      13.49996305      17.69266778
O        8.35346168      12.63543101      15.51372434
O        2.20039351      10.88576384      16.99045792
O       13.23816463      11.28064490      17.22975088
O        1.24940348       5.13098230      17.18847405
O        5.84041267       5.48144115      15.89588882
O        8.54743323       8.12047238      16.95736583
O        4.06514965       2.45406293      17.55611081
O       12.41493315       2.72780859      15.39554869
O       11.86941614       5.03384946      16.81718164
O       13.63493261       8.59277601      16.09585345
O        6.30067044       0.61701453      17.13802444
O        6.62739667      10.68243405      15.70566998
