115
Lattice="13.75323 0.0 0.0 0.0 13.75323 0.0 0.0 0.0 23.89" Properties=species:S:1:pos:R:3 entry_id=0 rank=12 energy=-568.39501953125 parent_id=-1 pbc="T T F"
Pd       0.00000000       0.00000000      10.00000000
Pd       2.75064538       0.00000000      10.00000000
Pd       5.50129076       0.00000000      10.00000000
Pd       8.25193614       0.00000000      10.00000000
Pd      11.00258152       0.00000000      10.00000000
Pd       0.00000000       2.75064538      10.00000000
Pd       2.75064538       2.75064538      10.00000000
Pd       5.50129076       2.75064538      10.00000000
Pd       8.25193614       2.75064538      10.00000000
Pd      11.00258152       2.75064538      10.00000000
Pd       0.00000000       5.50129076      10.00000000
Pd       2.75064538       5.50129076      10.00000000
Pd       5.50129076       5.50129076      10.00000000
Pd       8.25193614       5.50129076      10.00000000
Pd      11.00258152       5.50129076      10.00000000
Pd       0.00000000       8.25193614      10.00000000
Pd       2.75064538       8.25193614      10.00000000
Pd       5.50129076       8.25193614      10.00000000
Pd       8.25193614       8.25193614      10.00000000
Pd      11.00258152       8.25193614      10.00000000
Pd       0.00000000      11.00258152      10.00000000
Pd       2.75064538      11.00258152      10.00000000
Pd       5.50129076      11.00258152      10.00000000
Pd       8.25193614      11.00258152      10.00000000
Pd      11.00258152      11.00258152      10.00000000
Pd       1.34625217       1.38084226      12.08139605
Pd       4.09710524       1.39051350      12.02477289
Pd       6.82981407       1.36953835      12.02875853
Pd       9.57512057       1.39592898      11.89594876
Pd      12.38684272       1.37174114      11.92044161
Pd       1.36476825       4.11653455      11.98604977
Pd       4.10062665       4.12335624      12.03935938
Pd       6.80964608       4.10127125      12.01947714
Pd       9.56728621       4.13975942      11.94281254
Pd      12.36578195       4.13265160      11.93417299
Pd       1.37110082       6.89256210      11.94010419
Pd       4.13935064       6.87026939      11.96482277
Pd       6.87097415       6.85831372      11.95140951
Pd       9.64205429       6.82915781      11.94515418
Pd      12.39111484       6.85622887      11.94896407
Pd       1.35620660       9.70035493      11.99803741
Pd       4.11777592       9.66324146      11.95099537
Pd       6.89476706       9.64088005      11.95142944
Pd       9.64982872       9.59779534      11.89439304
Pd      12.42487279       9.60955999      11.94161946
Pd       1.38044500      12.43193412      12.05374766
Pd       4.10022405      12.39282855      12.00409403
Pd       6.86816975      12.39901143      11.97280504
Pd       9.63028672      12.36702810      11.91406436
Pd      12.44377483      12.34106317      11.97883751
Pd      13.68383552      13.72506840      14.13496794
Pd       2.74105824       0.13688890      14.18798282
Pd       5.57275467      13.58409554      14.03505334
Pd       8.32210302       0.10872533      14.02896601
Pd      11.00945442       0.06542660      13.76260714
Pd      13.56161559       2.74995128      13.99054411
Pd       2.60935756       2.89245733      14.11905466
Pd       5.38704823       2.66349182      14.17468719
Pd       8.19636172       2.74738073      13.98464630
Pd      10.87234579       2.71375937      13.87795324
Pd       0.02066122       5.52365128      13.94650548
Pd       2.72281772       5.58684870      14.00781384
Pd       5.45645454       5.48205305      14.06963104
Pd       8.27768042       5.48392578      14.03245938
Pd      11.00184605       5.39664390      13.97231479
Pd       0.04971819       8.32457200      13.97807374
Pd       2.75359630       8.29350632      13.88781567
Pd       5.49569835       8.26291844      13.94877018
Pd       8.40017764       8.22067941      13.82455300
Pd      11.08213387       8.19515788      13.93716014
Pd      13.58924097      10.96819380      14.50068635
Pd       2.74684655      11.08184152      14.01333320
Pd       5.55691495      10.90583415      13.95549783
Pd       8.34038447      11.01503453      13.92443823
Pd      11.03614124      10.88289356      13.82899160
Pd      12.43758531       6.59287099      16.10455456
Pd       8.74023513       9.62200860      16.23413127
Pd       2.03064217      12.72896047      16.64121522
Pd       1.41925064       7.01585416      16.25541858
Pd      11.87895578       9.39104494      16.30172248
Pd       8.32076677       1.37681599      16.95456678
Pd       4.98991002       0.37837782      17.18449294
Pd       5.65050678       9.65138275      17.05432466
Pd       4.39384421      11.78172812      16.13854358
Pd      10.86718214      12.42525416      15.91203707
Pd       0.84944130       4.28623700      16.30382927
Pd       3.88142172       4.40498825      16.31821184
Pd      11.15786732       3.15618806      16.54905103
Pd       2.99014411       9.51108766      16.27592678
Pd       7.25970301       7.14734077      16.87911040
Pd       6.97183952      11.97816281      16.16839467
Pd       9.73205276       6.98603310      15.97464854
Pd       7.44865436       3.72308417      16.42943926
Pd       1.07455101       1.49116434      16.04521644
Pd       4.09055364       7.08729735      15.90612344
O        9.23783051       3.11400517      17.10105422
O       10.39578306      10.53343198      16.84740064
O       12.86563062      12.54157386      15.65828747
O       11.40033277       1.29080851      17.22750239
O       10.36248986       0.44715643      17.13444680
O        5.25443398       7.65420695      17.37628751
O        4.40728263       1.01620152      15.22006219
O        2.39078923       1.64073061      17.53605231
O        8.88604260      12.46470346      15.43786972
O        1.53673125      10.98904250      15.78943519
O        3.00990923       0.38462108      17.70399220
O        2.31056603       5.38256221      17.01122093
O        6.98069488       5.58707884      15.66938605
O        7.53893759       8.89927070      17.78026041
O        5.52329563       3.35579264      16.08819170
O       13.14556643       2.98270967      16.01061639
O       11.03827256       5.17651458      16.05772252
O       13.54550556       8.25304876      16.06254586
O        6.93515592       0.02471409      17.15671033
O        7.07531732       8.65275673      15.26881405
