115
Lattice="13.75323 0.0 0.0 0.0 13.75323 0.0 0.0 0.0 23.89" Properties=species:S:1:pos:R:3 entry_id=3 rank=2 energy=-572.6923828125 parent_id=1 pbc="T T F"
Pd       0.00000000       0.00000000      10.00000000
Pd       2.75064538       0.00000000      10.00000000
Pd       5.50129076       0.00000000      10.00000000
Pd       8.25193614       0.00000000      10.00000000
Pd      11.00258152       0.00000000      10.00000000
Pd       0.00000000       2.75064538      10.00000000
Pd       2.75064538       2.75064538      10.00000000
Pd       5.50129076       2.75064538      10.00000000
Pd       8.25193614       2.75064538      10.00000000
Pd      11.00258152       2.75064538      10.00000000
Pd       0.00000000       5.50129076      10.00000000
Pd       2.75064538       5.50129076      10.00000000
Pd       5.50129076       5.50129076      10.00000000
Pd       8.25193614       5.50129076      10.00000000
Pd      11.00258152       5.50129076      10.00000000
Pd       0.00000000       8.25193614      10.00000000
Pd       2.75064538       8.25193614      10.00000000
Pd       5.50129076       8.25193614      10.00000000
Pd       8.25193614       8.25193614      10.00000000
Pd      11.00258152       8.25193614      10.00000000
Pd       0.00000000      11.00258152      10.00000000
Pd       2.75064538      11.00258152      10.00000000
Pd       5.50129076      11.00258152      10.00000000
Pd       8.25193614      11.00258152      10.00000000
Pd      11.00258152      11.00258152      10.00000000
Pd       1.38188423       1.41512346      12.01425942
Pd       4.10654012       1.39054195      12.01379425
Pd       6.84526193       1.37600646      12.02966768
Pd       9.57512057       1.39592898      11.89594876
Pd      12.38684272       1.37174114      11.92044161
Pd       1.35032773       4.11979890      12.01721617
Pd       4.07516618       4.11989885      11.99878515
Pd       6.82415204       4.10564697      11.97603467
Pd       9.56728621       4.13975942      11.94281254
Pd      12.36578195       4.13265160      11.93417299
Pd       1.37110082       6.89256210      11.94010419
Pd       4.13935064       6.87026939      11.96482277
Pd       6.87097415       6.85831372      11.95140951
Pd       9.64205429       6.82915781      11.94515418
Pd      12.39111484       6.85622887      11.94896407
Pd       1.37298154       9.65144135      11.95740139
Pd       4.11777592       9.66324146      11.95099537
Pd       6.89476706       9.64088005      11.95142944
Pd       9.64982872       9.59779534      11.89439304
Pd      12.42487279       9.60955999      11.94161946
Pd       1.38877936      12.40138686      11.97275889
Pd       4.10650412      12.40169644      11.98581921
Pd       6.86816975      12.39901143      11.97280504
Pd       9.63028672      12.36702810      11.91406436
Pd      12.39273261      12.36582600      11.95320238
Pd      13.69937483      13.73768247      13.90112634
Pd       2.74273781      13.70991891      14.08454081
Pd       5.49669632      13.71654773      14.01761047
Pd       8.30076296       0.10138140      14.01776734
Pd      11.00103008       0.00754804      13.93815884
Pd       8.23117399       2.75816929      14.00844359
Pd      10.89326746       2.68418498      13.89604913
Pd      13.58105538       2.77039657      14.03761343
Pd       2.63196100       2.87638748      14.14531676
Pd       5.45590404       2.73742223      14.04056391
Pd      13.74802205       5.51847767      13.99121427
Pd       2.70403141       5.56243748      13.99945606
Pd       5.37852039       5.49820024      13.97507968
Pd       8.30103835       5.49020986      13.94691938
Pd      11.02671112       5.40957903      13.93884479
Pd       0.04703245       8.28276838      13.98368498
Pd       2.79677414       8.27533341      13.87413055
Pd       5.56573974       8.27282449      13.94549520
Pd       8.32886352       8.26303561      13.93030589
Pd      11.08423488       8.24026905      13.97363563
Pd       0.00257917      10.98756523      14.04195870
Pd       2.65968163      10.99846097      13.99236925
Pd       5.38412812      10.99966783      13.94347696
Pd       8.35413093      10.98210771      14.02673956
Pd      11.05195761      11.00203661      13.87344139
Pd      12.47025565       6.59834279      16.27990920
Pd       9.20802625       9.59079742      16.33712013
Pd       1.34424211      12.29925361      16.39920600
Pd       1.47514492       7.04804347      15.94477304
Pd      12.43176330       9.49025782      16.21039223
Pd       8.03711381       1.51102379      17.22732898
Pd       4.63148031       1.10246177      16.38833547
Pd       5.68491875       9.66868572      16.51054060
Pd       4.04615827      12.19561616      16.13975290
Pd      10.45893727      12.58534752      16.57484504
Pd       0.53849624       4.17270395      16.38618087
Pd       3.56915786       4.36612564      16.37666438
Pd      10.86015679       3.29795735      16.62618375
Pd       2.99689842       9.48048500      16.19729529
Pd       7.11687381       7.22344390      16.25134941
Pd       6.66759867      12.77276907      16.37785727
Pd       9.73928767       6.95550105      15.92441219
Pd       7.16405751       3.68613368      16.41955864
Pd      12.64031445       0.80638137      16.70699816
Pd       4.26261228       6.97271978      15.95962949
O        8.95993475       3.30425240      17.21207495
O       10.84883272      10.68673846      15.89594343
O        0.45052290       0.15798470      15.80386278
O       11.03078834       1.51631808      17.63659719
O        9.89550719       0.56826951      17.51866593
O        4.37359175       8.45049442      17.34294685
O        2.93515220       1.41180312      15.48508397
O       12.27828045      12.67859693      17.48964922
O        8.72761596      12.57081667      15.56754934
O        2.62804675      11.12795198      17.25968435
O       13.19683857      11.64683852      17.19853449
O        1.97915143       5.33424177      16.99262383
O        6.87058209       5.45731150      15.44113617
O        7.53530092       8.90357190      17.12467729
O        5.20906617       3.24733554      16.08375718
O       12.83841554       2.81109656      16.07098810
O       10.99283459       5.25265123      16.01166819
O       13.65377936       8.06882192      16.81952540
O        6.28750866       0.65462753      17.37660197
O        6.74306415      10.99729761      15.49223890
