115
Lattice="13.75323 0.0 0.0 0.0 13.75323 0.0 0.0 0.0 23.89" Properties=species:S:1:pos:R:3 entry_id=11 rank=8 energy=-571.9320068359375 parent_id=10 pbc="T T F"
Pd       0.00000000       0.00000000      10.00000000
Pd       2.75064538       0.00000000      10.00000000
Pd       5.50129076       0.00000000      10.00000000
Pd       8.25193614       0.00000000      10.00000000
Pd      11.00258152       0.00000000      10.00000000
Pd       0.00000000       2.75064538      10.00000000
Pd       2.75064538       2.75064538      10.00000000
Pd       5.50129076       2.75064538      10.00000000
Pd       8.25193614       2.75064538      10.00000000
Pd      11.00258152       2.75064538      10.00000000
Pd       0.00000000       5.50129076      10.00000000
Pd       2.75064538       5.50129076      10.00000000
Pd       5.50129076       5.50129076      10.00000000
Pd       8.25193614       5.50129076      10.00000000
Pd      11.00258152       5.50129076      10.00000000
Pd       0.00000000       8.25193614      10.00000000
Pd       2.75064538       8.25193614      10.00000000
Pd       5.50129076       8.25193614      10.00000000
Pd       8.25193614       8.25193614      10.00000000
Pd      11.00258152       8.25193614      10.00000000
Pd       0.00000000      11.00258152      10.00000000
Pd       2.75064538      11.00258152      10.00000000
Pd       5.50129076      11.00258152      10.00000000
Pd       8.25193614      11.00258152      10.00000000
Pd      11.00258152      11.00258152      10.00000000
Pd       1.41442222       1.36509296      11.99967910
Pd       4.11783584       1.35392783      12.03793124
Pd       6.85626345       1.38485534      11.99369799
Pd       9.57512057       1.39592898      11.89594876
Pd      12.38684272       1.37174114      11.92044161
Pd       1.39877320       4.11821419      11.95852813
Pd       4.12955668       4.08260489      11.97613869
Pd       6.87386017       4.11702288      11.96600618
Pd       9.56728621       4.13975942      11.94281254
Pd      12.36578195       4.13265160      11.93417299
Pd       1.37110082       6.89256210      11.94010419
Pd       4.13935064       6.87026939      11.96482277
Pd       6.87097415       6.85831372      11.95140951
Pd       9.64205429       6.82915781      11.94515418
Pd      12.39111484       6.85622887      11.94896407
Pd       1.38015442       9.59485095      11.97422430
Pd       4.11777592       9.66324146      11.95099537
Pd       6.89476706       9.64088005      11.95142944
Pd       9.64982872       9.59779534      11.89439304
Pd      12.42487279       9.60955999      11.94161946
Pd       1.35259993      12.37680842      11.95817995
Pd       4.13087118      12.40010054      12.00128738
Pd       6.86816975      12.39901143      11.97280504
Pd       9.63028672      12.36702810      11.91406436
Pd      12.36211852      12.36278580      11.96684319
Pd       0.04381189       2.77404117      13.88256330
Pd       2.69335485      13.72959188      14.03633945
Pd       5.47079257      13.69388265      14.08578764
Pd       8.24593641       0.12651475      13.97920206
Pd      10.94964804      13.73997794      13.95559559
Pd       8.31955309       2.90783731      13.98470717
Pd      11.07066381       2.68305134      13.95780954
Pd       0.00766738       5.45935891      13.97134425
Pd       1.27141368       1.60425498      15.95596943
Pd       5.53541867       2.67909033      14.03410900
Pd      10.94361317       8.22800333      13.93602868
Pd       2.82131960       2.80916610      14.13811861
Pd       0.10454467       8.20550132      14.01417890
Pd       8.28431238       5.70505749      13.99300738
Pd      11.03968627       5.47076203      13.96018000
Pd      13.70118100      10.96944095      13.98363193
Pd       5.52680342       5.44781053      13.89404059
Pd       2.75461201       5.50355461      13.91342059
Pd       5.39172728      10.89953665      14.00372038
Pd       5.80643930       8.22223639      14.08549033
Pd      13.66094071      13.71654019      13.94663794
Pd       2.65102844      10.94058945      13.88767484
Pd       2.93782397       8.23288390      14.03206787
Pd       8.17051746      10.99037575      13.80197607
Pd      10.93213607      11.01624114      13.88667246
Pd      12.59170615       6.62270184      16.25871212
Pd       8.33006804       9.05286724      15.44814771
Pd       0.76529564      12.03550900      16.53127333
Pd       1.52937480       5.86098200      16.21072098
Pd      11.99745428       9.64468376      16.00645223
Pd       7.15174525       1.60486758      16.14377716
Pd       3.63656038       0.62606926      16.63701774
Pd       5.32488075       9.04478684      16.73323706
Pd       3.76703609      11.05475395      16.30053704
Pd       9.85400825      12.35694453      16.50406812
Pd      13.31606416       3.54184849      16.55490890
Pd       2.61581626       3.31179104      17.46609884
Pd      10.10491435       4.07689384      16.28900835
Pd       1.77744736       8.48710720      16.55479443
Pd       7.09945263       6.65079920      16.36514177
Pd       6.32331308      11.92382406      16.34313624
Pd       9.88140225       6.77677593      15.94542882
Pd       5.16050481       3.53327882      16.60934101
Pd      11.83539533       0.58646452      16.74326673
Pd       4.19923665       6.63448408      16.04391862
O        8.39422304       3.13238497      15.96085561
O       10.25825658      10.53796470      15.79574115
O       13.65490734       0.03490952      16.02473754
O       10.14549978       1.14374813      17.67490940
O        9.12196962       0.34316005      17.28282512
O        3.61625980       8.15889311      17.18373630
O        2.66232910      12.77384168      15.94428132
O       11.64866929      12.43833537      17.50063262
O        8.19814734      12.35459786      15.41336569
O        1.91181395      10.48889959      17.05988149
O       12.67656007      11.38808889      17.12946670
O        1.03329774       4.44280946      17.52060223
O        5.75804676       5.26154740      15.92316292
O        8.54692913       7.76420164      17.02050984
O        4.23048505       2.18500003      17.64381662
O       11.77947342       2.43460173      15.92089272
O       11.79390681       4.93339238      16.92394034
O       13.56228703       8.42677391      16.08104810
O        5.78670989       0.10119576      16.18162208
O        6.96164487      10.09020942      16.64510032
