115
Lattice="13.75323 0.0 0.0 0.0 13.75323 0.0 0.0 0.0 23.89" Properties=species:S:1:pos:R:3 entry_id=2 rank=11 energy=-569.897705078125 parent_id=1 pbc="T T F"
Pd       0.00000000       0.00000000      10.00000000
Pd       2.75064538       0.00000000      10.00000000
Pd       5.50129076       0.00000000      10.00000000
Pd       8.25193614       0.00000000      10.00000000
Pd      11.00258152       0.00000000      10.00000000
Pd       0.00000000       2.75064538      10.00000000
Pd       2.75064538       2.75064538      10.00000000
Pd       5.50129076       2.75064538      10.00000000
Pd       8.25193614       2.75064538      10.00000000
Pd      11.00258152       2.75064538      10.00000000
Pd       0.00000000       5.50129076      10.00000000
Pd       2.75064538       5.50129076      10.00000000
Pd       5.50129076       5.50129076      10.00000000
Pd       8.25193614       5.50129076      10.00000000
Pd      11.00258152       5.50129076      10.00000000
Pd       0.00000000       8.25193614      10.00000000
Pd       2.75064538       8.25193614      10.00000000
Pd       5.50129076       8.25193614      10.00000000
Pd       8.25193614       8.25193614      10.00000000
Pd      11.00258152       8.25193614      10.00000000
Pd       0.00000000      11.00258152      10.00000000
Pd       2.75064538      11.00258152      10.00000000
Pd       5.50129076      11.00258152      10.00000000
Pd       8.25193614      11.00258152      10.00000000
Pd      11.00258152      11.00258152      10.00000000
Pd       1.36742701       1.40907407      12.00341766
Pd       4.08340190       1.41079310      11.95782558
Pd       6.88238101       1.41710263      11.95052683
Pd       9.57512057       1.39592898      11.89594876
Pd      12.38684272       1.37174114      11.92044161
Pd       1.38270922       4.10972621      11.99771583
Pd       4.08983048       4.11631421      12.00139436
Pd       6.85797217       4.14965721      11.97406392
Pd       9.56728621       4.13975942      11.94281254
Pd      12.36578195       4.13265160      11.93417299
Pd       1.37110082       6.89256210      11.94010419
Pd       4.13935064       6.87026939      11.96482277
Pd       6.87097415       6.85831372      11.95140951
Pd       9.64205429       6.82915781      11.94515418
Pd      12.39111484       6.85622887      11.94896407
Pd       1.39547557       9.64574050      11.96636136
Pd       4.11777592       9.66324146      11.95099537
Pd       6.89476706       9.64088005      11.95142944
Pd       9.64982872       9.59779534      11.89439304
Pd      12.42487279       9.60955999      11.94161946
Pd       1.36548052      12.39816205      11.98805243
Pd       4.10398529      12.37660951      11.95802352
Pd       6.86816975      12.39901143      11.97280504
Pd       9.63028672      12.36702810      11.91406436
Pd      12.35769745      12.35286469      12.00838520
Pd      13.73460811       0.07656382      13.97511073
Pd       2.69045900      13.70861617      13.97816600
Pd       5.51511102       0.05313444      13.79820943
Pd       8.28587763       0.07256253      13.90975964
Pd      10.97302749       0.00404180      13.94251287
Pd      10.97063663       2.71406571      13.92314369
Pd      13.71827474       2.79383323      13.97498389
Pd       2.85574108       2.66452570      14.33421676
Pd       5.51635627       2.81502857      13.93053040
Pd       8.27991193       2.77163338      14.04316235
Pd      13.71599254       5.51640505      13.95245548
Pd       2.69673352       5.43015703      13.98484496
Pd       5.43874848       5.51933217      13.99232990
Pd       8.20311435       5.44949639      14.02707958
Pd      10.97387390       5.43005556      13.89485184
Pd      13.71553368       8.27049244      13.91802018
Pd       2.72899143       8.22060578      13.98127828
Pd       5.46053464       8.33078622      13.95396532
Pd       8.23383459       8.24062771      13.94229790
Pd      10.96089298       8.27267005      13.97061041
Pd       0.02109164      11.00472305      13.97320454
Pd       2.79927346      10.97855783      13.98680282
Pd       4.38598603      13.26649756      16.10170759
Pd       5.52589570      11.08221811      14.05872549
Pd       8.33001982      10.96815492      13.87105051
Pd      12.34003632       6.89399343      16.15707380
Pd       9.54686232       9.84374878      16.07896970
Pd       1.91778953      12.35067622      16.96540300
Pd       1.25680926       6.89937806      15.90794338
Pd      12.32456932       9.62556990      16.01084714
Pd      10.25250238       2.34204250      19.03279133
Pd       6.62067855       1.33462276      15.83793810
Pd       6.81099682       9.81147299      16.19206469
Pd       7.47457726      12.43204095      16.03126498
Pd      12.34666258      12.41056627      15.85241295
Pd       1.35511128       4.15984596      16.14084885
Pd       4.75326613       4.06874254      16.32730129
Pd      11.70525022       3.94666548      16.98861541
Pd       1.29468042       9.58482565      16.18696615
Pd       6.64337219       6.74723797      16.09175985
Pd       8.91344722       0.83730553      17.05791261
Pd       9.53777714       7.05273292      16.24481881
Pd       8.22165736       3.73175455      17.25584157
Pd      13.49818502       1.47928277      17.25523354
Pd       3.90506305       6.71740698      16.16216031
O       10.05206358       4.14582636      18.06825625
O       11.02069506      11.00918027      15.53443603
O        0.09248123      13.69059658      16.02980441
O       12.87536448       2.96579086      18.49355400
O       12.12885444       2.52711969      19.59503296
O        5.27257967       8.18442708      16.03769190
O        3.15008299       1.00431679      15.63922181
O        0.19931682       0.14393336      18.66398754
O        9.30031878      13.25438279      15.70207083
O        2.73001116      10.86998764      15.98581646
O        1.46826030      13.48307078      18.52912489
O        3.05183406       5.00181841      16.72441642
O        8.12343056       5.42121848      16.15812600
O        8.29296712       8.53839478      16.87817609
O        6.38523062       3.08731000      16.75732478
O       13.36799938       3.14161523      15.99531437
O       10.91610530       5.53105321      15.91314215
O       13.62899884       8.29332001      16.86487635
O        8.38827498       2.11682437      18.45847449
O        5.65416868      11.63013412      16.14564348
