115
Lattice="13.75323 0.0 0.0 0.0 13.75323 0.0 0.0 0.0 23.89" Properties=species:S:1:pos:R:3 trial_index=35 seed_entry_id=29 discovered_entry_id=32 energy=-572.86376953125 status=accepted pbc="T T F"
Pd       0.00000000       0.00000000      10.00000000
Pd       2.75064538       0.00000000      10.00000000
Pd       5.50129076       0.00000000      10.00000000
Pd       8.25193614       0.00000000      10.00000000
Pd      11.00258152       0.00000000      10.00000000
Pd       0.00000000       2.75064538      10.00000000
Pd       2.75064538       2.75064538      10.00000000
Pd       5.50129076       2.75064538      10.00000000
Pd       8.25193614       2.75064538      10.00000000
Pd      11.00258152       2.75064538      10.00000000
Pd       0.00000000       5.50129076      10.00000000
Pd       2.75064538       5.50129076      10.00000000
Pd       5.50129076       5.50129076      10.00000000
Pd       8.25193614       5.50129076      10.00000000
Pd      11.00258152       5.50129076      10.00000000
Pd       0.00000000       8.25193614      10.00000000
Pd       2.75064538       8.25193614      10.00000000
Pd       5.50129076       8.25193614      10.00000000
Pd       8.25193614       8.25193614      10.00000000
Pd      11.00258152       8.25193614      10.00000000
Pd       0.00000000      11.00258152      10.00000000
Pd       2.75064538      11.00258152      10.00000000
Pd       5.50129076      11.00258152      10.00000000
Pd       8.25193614      11.00258152      10.00000000
Pd      11.00258152      11.00258152      10.00000000
Pd       1.37114820       1.44676856      11.99459384
Pd       4.12912463       1.37498345      11.91227493
Pd       6.89169843       1.40250801      12.05362782
Pd       9.57512057       1.39592898      11.89594876
Pd      12.38684272       1.37174114      11.92044161
Pd       1.35098088       4.15697624      11.96631810
Pd       4.07367692       4.13671930      11.95538889
Pd       6.84182714       4.06470117      12.05013808
Pd       9.56728621       4.13975942      11.94281254
Pd      12.36578195       4.13265160      11.93417299
Pd       1.37110082       6.89256210      11.94010419
Pd       4.13935064       6.87026939      11.96482277
Pd       6.87097415       6.85831372      11.95140951
Pd       9.64205429       6.82915781      11.94515418
Pd      12.39111484       6.85622887      11.94896407
Pd       1.37741557       9.66665440      11.96935162
Pd       4.11777592       9.66324146      11.95099537
Pd       6.89476706       9.64088005      11.95142944
Pd       9.64982872       9.59779534      11.89439304
Pd      12.42487279       9.60955999      11.94161946
Pd       1.37625553      12.45259858      11.99001970
Pd       4.12858887      12.41494846      11.99068144
Pd       6.86816975      12.39901143      11.97280504
Pd       9.63028672      12.36702810      11.91406436
Pd      12.41143450      12.35258415      11.98828642
Pd       0.05593517       0.19608984      13.98250979
Pd       2.83006321       0.13877989      14.05030334
Pd       5.55816268       0.03631877      14.00549871
Pd       8.38331267       0.10568858      14.04298695
Pd      11.05202720       0.07806779      13.83343042
Pd      10.81947886       1.21708697      16.18165667
Pd      12.43638900       2.72319501      14.25326479
Pd       1.47420044       2.97747373      14.41238938
Pd       5.16766171       2.76990272      13.97489929
Pd       9.34703610       2.75935653      14.23597864
Pd      13.70675310       5.37432010      14.03530640
Pd       2.71899286       5.49229694      14.00303181
Pd       5.53051291       5.53441943      13.93371082
Pd       8.22341889       5.42952934      13.98526356
Pd      10.96122711       5.18666852      13.99227638
Pd      13.69959030       8.22219432      13.91210420
Pd       2.75398159       8.29820091      13.92363539
Pd       5.47603591       8.29276311      13.98133316
Pd       8.24365461       8.24434485      13.91766192
Pd      10.95366623       8.10408322      14.00652760
Pd      13.69546732      10.97416070      14.03876636
Pd       2.76127241      11.13286276      13.93727047
Pd       5.49433892      10.99645230      13.91085691
Pd       8.20274824      11.02463531      13.98337545
Pd      10.92917541      10.94121256      13.86978334
Pd      12.15513832       6.59587105      16.17092771
Pd       9.34866121       9.61158679      16.30250306
Pd       1.86629603      12.60442989      16.46297908
Pd       1.36775262       7.15175971      15.89562271
Pd      12.21062259       9.45129072      16.10602886
Pd       7.88162015       1.80589557      16.65590567
Pd       4.11630553       0.90394560      16.74300318
Pd       6.01394025       9.80383940      16.38777620
Pd       4.36315862      12.04858201      16.07444790
Pd      12.16439526      12.38507431      15.97849264
Pd      13.47624421       4.24600114      16.62594522
Pd       2.50354236       4.09395727      17.04237597
Pd       8.77629356       4.39454433      16.47894095
Pd       2.87285011       9.73419668      16.29411458
Pd       6.80246952       6.87642293      15.90772877
Pd       6.88641709      12.74605487      16.13809941
Pd       9.46266908       6.95347849      16.25788032
Pd       5.49307932       4.27205538      16.34510234
Pd       0.54643028       1.48314087      16.89793108
Pd       4.10378650       7.09905619      16.28941636
O        7.11357912       3.54713234      17.12185670
O       10.83277910      10.92141868      15.94879536
O        0.00913399      13.51530324      16.01940183
O        9.26696793       2.45719845      18.10579695
O       10.39754381       1.78322660      18.12095123
O        4.43015269       8.85567881      17.06954652
O        3.27580318       2.07697737      14.51002759
O        1.00586921       3.10670368      17.89395478
O        9.01247863       0.26437831      16.05437423
O        1.39369807      10.87785730      15.60773958
O        2.27920077       0.53205614      17.41382600
O        1.12150682       5.56032800      17.13521877
O        3.74826158       5.18343879      15.86835477
O        8.07358108       8.20993606      16.92876425
O        4.12374747       2.91370414      17.20591147
O       12.52756128       2.37522205      16.29411638
O       10.58136138       5.27947278      16.02233773
O       13.41894351       8.01013196      16.67894098
O        6.02334004       0.82222239      16.04404072
O        7.65880011      10.91503707      16.05683400
