115
Lattice="13.75323 0.0 0.0 0.0 13.75323 0.0 0.0 0.0 23.89" Properties=species:S:1:pos:R:3 trial_index=23 seed_entry_id=20 discovered_entry_id=21 energy=-572.8052978515625 status=accepted pbc="T T F"
Pd       0.00000000       0.00000000      10.00000000
Pd       2.75064538       0.00000000      10.00000000
Pd       5.50129076       0.00000000      10.00000000
Pd       8.25193614       0.00000000      10.00000000
Pd      11.00258152       0.00000000      10.00000000
Pd       0.00000000       2.75064538      10.00000000
Pd       2.75064538       2.75064538      10.00000000
Pd       5.50129076       2.75064538      10.00000000
Pd       8.25193614       2.75064538      10.00000000
Pd      11.00258152       2.75064538      10.00000000
Pd       0.00000000       5.50129076      10.00000000
Pd       2.75064538       5.50129076      10.00000000
Pd       5.50129076       5.50129076      10.00000000
Pd       8.25193614       5.50129076      10.00000000
Pd      11.00258152       5.50129076      10.00000000
Pd       0.00000000       8.25193614      10.00000000
Pd       2.75064538       8.25193614      10.00000000
Pd       5.50129076       8.25193614      10.00000000
Pd       8.25193614       8.25193614      10.00000000
Pd      11.00258152       8.25193614      10.00000000
Pd       0.00000000      11.00258152      10.00000000
Pd       2.75064538      11.00258152      10.00000000
Pd       5.50129076      11.00258152      10.00000000
Pd       8.25193614      11.00258152      10.00000000
Pd      11.00258152      11.00258152      10.00000000
Pd       1.36572031       1.44308988      12.01526024
Pd       4.12207443       1.39069562      11.93564811
Pd       6.87662786       1.38035383      12.00365392
Pd       9.57512057       1.39592898      11.89594876
Pd      12.38684272       1.37174114      11.92044161
Pd       1.35787645       4.14920518      11.96480798
Pd       4.08328835       4.11540306      11.98940235
Pd       6.82672425       4.10139175      11.98969540
Pd       9.56728621       4.13975942      11.94281254
Pd      12.36578195       4.13265160      11.93417299
Pd       1.37110082       6.89256210      11.94010419
Pd       4.13935064       6.87026939      11.96482277
Pd       6.87097415       6.85831372      11.95140951
Pd       9.64205429       6.82915781      11.94515418
Pd      12.39111484       6.85622887      11.94896407
Pd       1.36937919       9.66463437      11.98342615
Pd       4.11777592       9.66324146      11.95099537
Pd       6.89476706       9.64088005      11.95142944
Pd       9.64982872       9.59779534      11.89439304
Pd      12.42487279       9.60955999      11.94161946
Pd       1.37494657      12.45162338      11.99340837
Pd       4.12086976      12.41704693      11.98315433
Pd       6.86816975      12.39901143      11.97280504
Pd       9.63028672      12.36702810      11.91406436
Pd      12.41211520      12.34194032      11.98600575
Pd       0.06440856       0.14507688      13.99960980
Pd       2.84626868       0.15138738      14.06617026
Pd       5.56868606      13.74732238      13.97677583
Pd       8.40145317       0.10159516      14.05005133
Pd      11.07247111       0.05287487      13.82991922
Pd      10.89887509       1.34289660      16.08700554
Pd      12.66815750       2.73636017      14.19169306
Pd       1.65844310       2.98020020      14.40000256
Pd       5.36126230       2.74206846      14.02548671
Pd       8.17666791       2.82780596      14.01032400
Pd       0.00196457       5.37292226      14.01836208
Pd       2.76485051       5.50586047      13.98385414
Pd       5.56608358       5.52779618      13.94543468
Pd       8.24921381       5.51473925      13.96870712
Pd      10.98499075       5.13758706      13.99411554
Pd      13.73524034       8.21332095      13.96800456
Pd       2.79446025       8.32052388      13.91738641
Pd       5.50351265       8.28190476      13.99954125
Pd       8.24849780       8.30551352      13.91584870
Pd      10.98491818       8.15381656      13.91075834
Pd      13.67586585      10.97684497      14.06144298
Pd       2.75884735      11.14277583      13.93994669
Pd       5.48766697      10.98377852      13.90631034
Pd       8.19243590      11.06685649      13.99042454
Pd      10.90167308      10.96687117      13.89790427
Pd      12.16579086       6.53223320      16.09032788
Pd       9.17255144       9.60095368      16.36805969
Pd       1.88258832      12.58854033      16.46860422
Pd       1.53534749       7.13783200      15.90778865
Pd      12.10640796       9.46512540      16.05272463
Pd       7.86917474       1.94973413      16.70386663
Pd       4.14187024       0.95606075      16.77187890
Pd       6.04326053       9.92151397      16.43947062
Pd       4.39249276      12.10684099      16.05188053
Pd      12.10932449      12.36495269      16.00860096
Pd      13.55466073       4.25282403      16.60544465
Pd       2.54389444       4.12541025      17.04434114
Pd       8.74836398       4.54716775      16.53880678
Pd       2.93784727       9.75514987      16.30317181
Pd       6.90156558       6.87335808      15.94423684
Pd       6.88583130      12.91699775      16.17628852
Pd       9.57796948       7.05250076      15.94182294
Pd       5.51065269       4.35522085      16.39722636
Pd       0.60644242       1.45877949      16.87795323
Pd       4.19117999       7.13520428      16.32345356
O        7.09754538       3.68135995      17.25368786
O       10.72691710      10.89834095      16.00104233
O       13.74475320      13.47254317      16.04250776
O        9.35747658       2.81300262      17.91186326
O       10.55425112       2.24043770      17.88292367
O        4.49380629       8.89564718      17.11227712
O        3.44389080       2.06443264      14.53768045
O        1.06856527       3.09189204      17.87036293
O        9.06500284       0.49010845      16.00771924
O        1.42413245      10.86533649      15.60673253
O        2.31347681       0.51094623      17.42940638
O        1.15378942       5.59135868      17.15580706
O        3.77980672       5.23789724      15.86165546
O        7.57389541       8.52751231      16.95602343
O        4.15480533       2.96167508      17.23914870
O       12.65202655       2.39046010      16.21249518
O       10.60814298       5.20744644      16.03931433
O       13.44288705       8.02184897      16.25784138
O        6.05046644       0.98330749      16.08759960
O        7.63605220      11.09327190      16.04970128
