115
Lattice="13.75323 0.0 0.0 0.0 13.75323 0.0 0.0 0.0 23.89" Properties=species:S:1:pos:R:3 trial_index=33 seed_entry_id=24 discovered_entry_id=30 energy=-572.96533203125 status=accepted pbc="T T F"
Pd       0.00000000       0.00000000      10.00000000
Pd       2.75064538       0.00000000      10.00000000
Pd       5.50129076       0.00000000      10.00000000
Pd       8.25193614       0.00000000      10.00000000
Pd      11.00258152       0.00000000      10.00000000
Pd       0.00000000       2.75064538      10.00000000
Pd       2.75064538       2.75064538      10.00000000
Pd       5.50129076       2.75064538      10.00000000
Pd       8.25193614       2.75064538      10.00000000
Pd      11.00258152       2.75064538      10.00000000
Pd       0.00000000       5.50129076      10.00000000
Pd       2.75064538       5.50129076      10.00000000
Pd       5.50129076       5.50129076      10.00000000
Pd       8.25193614       5.50129076      10.00000000
Pd      11.00258152       5.50129076      10.00000000
Pd       0.00000000       8.25193614      10.00000000
Pd       2.75064538       8.25193614      10.00000000
Pd       5.50129076       8.25193614      10.00000000
Pd       8.25193614       8.25193614      10.00000000
Pd      11.00258152       8.25193614      10.00000000
Pd       0.00000000      11.00258152      10.00000000
Pd       2.75064538      11.00258152      10.00000000
Pd       5.50129076      11.00258152      10.00000000
Pd       8.25193614      11.00258152      10.00000000
Pd      11.00258152      11.00258152      10.00000000
Pd       1.36683701       1.43510164      11.98975906
Pd       4.11839332       1.38613281      11.94379486
Pd       6.86166675       1.37824565      12.00757731
Pd       9.57512057       1.39592898      11.89594876
Pd      12.38684272       1.37174114      11.92044161
Pd       1.35883767       4.15093382      11.95124438
Pd       4.08874960       4.13499622      11.98806889
Pd       6.81874003       4.11379950      12.00188305
Pd       9.56728621       4.13975942      11.94281254
Pd      12.36578195       4.13265160      11.93417299
Pd       1.37110082       6.89256210      11.94010419
Pd       4.13935064       6.87026939      11.96482277
Pd       6.87097415       6.85831372      11.95140951
Pd       9.64205429       6.82915781      11.94515418
Pd      12.39111484       6.85622887      11.94896407
Pd       1.37849314       9.67106988      11.96645555
Pd       4.11777592       9.66324146      11.95099537
Pd       6.89476706       9.64088005      11.95142944
Pd       9.64982872       9.59779534      11.89439304
Pd      12.42487279       9.60955999      11.94161946
Pd       1.38261761      12.44964763      11.98853064
Pd       4.13318497      12.41921658      11.99913978
Pd       6.86816975      12.39901143      11.97280504
Pd       9.63028672      12.36702810      11.91406436
Pd      12.41256077      12.34786171      11.97763084
Pd       0.05511934       0.17929716      13.97360023
Pd       2.83741594       0.13106474      14.08263411
Pd       5.57074879       0.01838681      14.04829369
Pd       8.36427853       0.06499628      14.03736219
Pd      11.04978199       0.06939488      13.81857089
Pd      10.70498627       1.20986181      16.13627401
Pd      12.51466668       2.72340193      14.21878410
Pd       1.51082942       2.96587499      14.37767729
Pd       5.30822161       2.74770709      14.02094048
Pd       8.14615432       2.80747710      14.01223887
Pd      13.74920977       5.37730466      14.01410799
Pd       2.73484241       5.50390689      13.97981874
Pd       5.58737214       5.50963325      14.05589027
Pd       8.30782917       5.55974897      13.92498171
Pd      11.01350867       5.22218397      13.96976096
Pd      13.70005282       8.22847581      13.90086120
Pd       2.74818616       8.29686440      13.91736115
Pd       5.47044909       8.26645587      13.96267421
Pd       8.25482303       8.28635727      13.91239343
Pd      10.95231421       8.10877063      14.03339232
Pd      13.69167712      10.99279568      14.02633321
Pd       2.76073861      11.12924536      13.94276340
Pd       5.49718713      10.98710943      13.92134108
Pd       8.20718522      11.01177993      13.99746785
Pd      10.92162961      10.93610081      13.85917041
Pd      12.37522154       6.85948129      16.15810119
Pd       9.45203810       9.37310296      16.31030387
Pd       1.79877084      12.57665212      16.46353053
Pd       1.37381749       7.18579454      15.92671873
Pd      12.23908201       9.61101553      16.09921382
Pd       7.69124463       1.72501142      16.76993335
Pd       3.98220629       0.81612627      16.76365275
Pd       6.00338029       9.70421153      16.37331381
Pd       4.30942789      11.98225193      16.10269902
Pd      12.06017574      12.38761617      15.97826374
Pd      13.13112853       4.27610320      16.74881008
Pd       2.24851231       4.09066444      16.99416090
Pd       7.82961542       4.47426139      16.20987114
Pd       2.84689553       9.68578074      16.29627475
Pd       6.87558924       7.04302785      15.93040389
Pd       6.87945923      12.54347145      16.13236760
Pd       9.68031376       6.48110497      16.31158897
Pd       5.20594497       4.07696944      16.48040936
Pd       0.40720750       1.46416564      16.86390986
Pd       4.09617925       7.02199840      16.25263064
O        6.72609684       3.29980039      17.41621321
O       10.70036236      10.92777335      15.92545889
O       13.68476486      13.47832430      16.00351782
O        9.12147518       2.46551363      18.04216403
O       10.27464220       1.83562745      18.03753547
O        4.40371287       8.78444369      17.04824629
O        3.32957452       2.09599169      14.37454937
O        0.72568572       3.14722143      17.82279848
O        8.90169511       0.30358315      16.03475737
O        1.38575624      10.84836731      15.59908218
O        2.12909215       0.51316934      17.42325485
O        0.91365309       5.58992026      17.14067840
O        3.59748524       5.11821522      15.87325536
O        8.41746930       7.82622249      16.98173658
O        3.79850638       2.81441471      17.23970668
O       12.39456211       2.33164985      16.24740180
O       11.23836263       5.21844473      16.00136789
O       13.56297411       8.31611056      16.72888371
O        5.93855496       0.61486059      16.13697032
O        7.70317430      10.71328398      16.06524737
