115
Lattice="13.75323 0.0 0.0 0.0 13.75323 0.0 0.0 0.0 23.89" Properties=species:S:1:pos:R:3 trial_index=4 seed_entry_id=3 discovered_entry_id=4 energy=-572.2846069335938 status=accepted pbc="T T F"
Pd       0.00000000       0.00000000      10.00000000
Pd       2.75064538       0.00000000      10.00000000
Pd       5.50129076       0.00000000      10.00000000
Pd       8.25193614       0.00000000      10.00000000
Pd      11.00258152       0.00000000      10.00000000
Pd       0.00000000       2.75064538      10.00000000
Pd       2.75064538       2.75064538      10.00000000
Pd       5.50129076       2.75064538      10.00000000
Pd       8.25193614       2.75064538      10.00000000
Pd      11.00258152       2.75064538      10.00000000
Pd       0.00000000       5.50129076      10.00000000
Pd       2.75064538       5.50129076      10.00000000
Pd       5.50129076       5.50129076      10.00000000
Pd       8.25193614       5.50129076      10.00000000
Pd      11.00258152       5.50129076      10.00000000
Pd       0.00000000       8.25193614      10.00000000
Pd       2.75064538       8.25193614      10.00000000
Pd       5.50129076       8.25193614      10.00000000
Pd       8.25193614       8.25193614      10.00000000
Pd      11.00258152       8.25193614      10.00000000
Pd       0.00000000      11.00258152      10.00000000
Pd       2.75064538      11.00258152      10.00000000
Pd       5.50129076      11.00258152      10.00000000
Pd       8.25193614      11.00258152      10.00000000
Pd      11.00258152      11.00258152      10.00000000
Pd       1.38007122       1.46112344      11.98138008
Pd       4.13653241       1.37582093      11.90573055
Pd       6.89896310       1.39618273      12.04471114
Pd       9.57512057       1.39592898      11.89594876
Pd      12.38684272       1.37174114      11.92044161
Pd       1.34135782       4.16457224      11.97643119
Pd       4.05973359       4.12220665      11.95928177
Pd       6.84268992       4.05441467      12.02970363
Pd       9.56728621       4.13975942      11.94281254
Pd      12.36578195       4.13265160      11.93417299
Pd       1.37110082       6.89256210      11.94010419
Pd       4.13935064       6.87026939      11.96482277
Pd       6.87097415       6.85831372      11.95140951
Pd       9.64205429       6.82915781      11.94515418
Pd      12.39111484       6.85622887      11.94896407
Pd       1.38246416       9.67352509      11.96547989
Pd       4.11777592       9.66324146      11.95099537
Pd       6.89476706       9.64088005      11.95142944
Pd       9.64982872       9.59779534      11.89439304
Pd      12.42487279       9.60955999      11.94161946
Pd       1.38791285      12.45731326      11.98300314
Pd       4.13838549      12.41353783      11.98216109
Pd       6.86816975      12.39901143      11.97280504
Pd       9.63028672      12.36702810      11.91406436
Pd      12.41130593      12.35050011      11.98109155
Pd       0.05956396       0.21093778      13.94183807
Pd       2.84142726       0.15051393      14.02865666
Pd       5.56754931       0.01624615      13.98552919
Pd       8.41891117       0.16926220      14.05540874
Pd      11.08865811       0.01445826      13.88519843
Pd      10.91068316       1.27927088      16.17496772
Pd      12.50515863       2.75192688      14.23237676
Pd       1.52986499       2.98592309      14.41219852
Pd       5.20622643       2.74798466      13.97383663
Pd       9.45064650       2.79576299      14.25669899
Pd      13.71315755       5.40027950      14.05028792
Pd       2.71514900       5.51352474      14.01133724
Pd       5.50503561       5.48379130      13.88215640
Pd       8.23250351       5.41388372      13.95155365
Pd      10.98208489       5.20329465      14.01932288
Pd      13.72554036       8.23361512      13.90249094
Pd       2.75400573       8.30782325      13.92950495
Pd       5.46296967       8.25542130      13.99677196
Pd       8.20980393       8.33908431      13.95707617
Pd      10.96716532       8.14364929      13.93339157
Pd      13.74594724      11.03806709      14.02181745
Pd       2.80576275      11.14334404      13.92798598
Pd       5.53411532      10.97766359      13.89953883
Pd       8.28112681      11.09299520      13.95572561
Pd      11.00778629      10.95518978      13.97008300
Pd      12.17198577       6.66407053      16.24450721
Pd       9.66032839      10.87808462      16.42823328
Pd       1.93222827      12.62585361      16.45079988
Pd       1.36864371       7.19191011      15.92884724
Pd      12.34451264       9.46047021      15.86864823
Pd       7.92632293       1.89495382      16.66210988
Pd       4.16367694       0.94235097      16.73585010
Pd       6.15466490       9.86067364      16.37386121
Pd       4.44010200      12.06723813      16.07148518
Pd      12.29491096      12.31437362      16.22733674
Pd      13.52695304       4.28737896      16.63235331
Pd       2.53040957       4.13185332      17.06213401
Pd       8.78046833       4.52373378      16.51985378
Pd       2.98514524       9.75743516      16.28661147
Pd       6.77500166       6.63595216      15.92775353
Pd       6.91820367      12.87313901      16.13657681
Pd       9.46874245       7.09208382      16.04455141
Pd       5.49449838       4.29769789      16.35979329
Pd       0.61619413       1.50709020      16.87003046
Pd       4.14016876       7.14127798      16.29805837
O        7.12851774       3.61960823      17.14693487
O       11.44539189      10.79390001      17.11853841
O        0.06743111      13.55499640      15.94657607
O        9.34722602       2.69003826      18.00326229
O       10.51327924       2.07177647      18.03078145
O        4.56326121       8.89310757      17.04694752
O        3.32025296       2.06956400      14.54259158
O        1.04402000       3.12175705      17.90094558
O        9.09094303       0.37621340      16.06972040
O        1.49146878      10.89593410      15.59623604
O        2.33390891       0.55253506      17.40440131
O        1.15587583       5.59952905      17.17195106
O        3.75692878       5.22934396      15.87358760
O        7.92421949       8.33728194      16.07638425
O        4.13854385       2.94038977      17.22838983
O       12.61923612       2.41240961      16.26254202
O       10.58449053       5.41321674      16.05366476
O       13.46100547       8.02591755      16.78738122
O        6.06584160       0.93906721      16.02887760
O        7.73840758      11.06683654      16.01194934
