115
Lattice="13.75323 0.0 0.0 0.0 13.75323 0.0 0.0 0.0 23.89" Properties=species:S:1:pos:R:3 trial_index=8 seed_entry_id=7 discovered_entry_id=8 energy=-572.9586181640625 status=accepted pbc="T T F"
Pd       0.00000000       0.00000000      10.00000000
Pd       2.75064538       0.00000000      10.00000000
Pd       5.50129076       0.00000000      10.00000000
Pd       8.25193614       0.00000000      10.00000000
Pd      11.00258152       0.00000000      10.00000000
Pd       0.00000000       2.75064538      10.00000000
Pd       2.75064538       2.75064538      10.00000000
Pd       5.50129076       2.75064538      10.00000000
Pd       8.25193614       2.75064538      10.00000000
Pd      11.00258152       2.75064538      10.00000000
Pd       0.00000000       5.50129076      10.00000000
Pd       2.75064538       5.50129076      10.00000000
Pd       5.50129076       5.50129076      10.00000000
Pd       8.25193614       5.50129076      10.00000000
Pd      11.00258152       5.50129076      10.00000000
Pd       0.00000000       8.25193614      10.00000000
Pd       2.75064538       8.25193614      10.00000000
Pd       5.50129076       8.25193614      10.00000000
Pd       8.25193614       8.25193614      10.00000000
Pd      11.00258152       8.25193614      10.00000000
Pd       0.00000000      11.00258152      10.00000000
Pd       2.75064538      11.00258152      10.00000000
Pd       5.50129076      11.00258152      10.00000000
Pd       8.25193614      11.00258152      10.00000000
Pd      11.00258152      11.00258152      10.00000000
Pd       1.35191121       1.41262186      11.95798829
Pd       4.12083511       1.48222337      12.09428897
Pd       6.87391922       1.38275775      11.96648355
Pd       9.57512057       1.39592898      11.89594876
Pd      12.38684272       1.37174114      11.92044161
Pd       1.36713677       4.14908078      11.94714474
Pd       4.11364241       4.13736407      11.98178055
Pd       6.84329674       4.10063290      11.94179476
Pd       9.56728621       4.13975942      11.94281254
Pd      12.36578195       4.13265160      11.93417299
Pd       1.37110082       6.89256210      11.94010419
Pd       4.13935064       6.87026939      11.96482277
Pd       6.87097415       6.85831372      11.95140951
Pd       9.64205429       6.82915781      11.94515418
Pd      12.39111484       6.85622887      11.94896407
Pd       1.37615821       9.65965616      11.96505246
Pd       4.11777592       9.66324146      11.95099537
Pd       6.89476706       9.64088005      11.95142944
Pd       9.64982872       9.59779534      11.89439304
Pd      12.42487279       9.60955999      11.94161946
Pd       1.38917964      12.42866655      11.99039603
Pd       4.13777274      12.44799170      11.99567484
Pd       6.86816975      12.39901143      11.97280504
Pd       9.63028672      12.36702810      11.91406436
Pd      12.41877596      12.35535466      11.99071924
Pd       0.07856471       0.18067082      13.98341969
Pd       2.84709194       0.00898054      14.16253782
Pd       5.60102455       0.11029298      14.00722567
Pd       8.39430743       0.16162379      14.03262256
Pd      11.07456572       0.08845783      13.84552322
Pd      10.90951536       1.21305790      16.24777037
Pd      12.55578110       2.73439667      14.28106997
Pd       1.53949803       2.93591531      14.35357452
Pd       7.03104778       2.80119690      14.28126986
Pd       9.76731992       2.74824903      14.24128348
Pd       0.00570525       5.36568485      14.02334871
Pd       2.75073679       5.47366889      13.98888783
Pd       5.57024790       5.45564476      13.92549750
Pd       8.25508108       5.39406105      13.96421187
Pd      11.01900702       5.26367666      13.96083698
Pd      13.71668376       8.21292908      13.91271502
Pd       2.77465389       8.28285503      13.89968942
Pd       5.49724458       8.27552111      13.96572156
Pd       8.26649189       8.23819204      13.90848998
Pd      10.97596452       8.13765650      14.00109585
Pd      13.71573695      10.96825165      14.04555779
Pd       2.77211702      11.08012154      13.94540154
Pd       5.50622045      11.00766211      13.90002361
Pd       8.22145108      11.03844223      13.97935137
Pd      10.94783632      10.95682347      13.86969497
Pd      12.25073083       6.60524647      16.16962975
Pd       9.39786063       9.60615227      16.28837252
Pd       1.87164845      12.52761171      16.51626317
Pd       1.43864492       7.13792349      15.87270994
Pd      12.26867496       9.45344900      16.11146784
Pd       8.13805844       1.76281131      16.61411601
Pd       4.12550605       0.82419104      16.70083479
Pd       6.05229279       9.76069935      16.36131065
Pd       4.37793560      11.97547464      16.09194989
Pd      12.21107191      12.38038510      15.98927535
Pd      13.62668045       4.25956661      16.61699350
Pd       2.67449364       4.04799461      16.93651942
Pd       8.91818494       4.35799169      16.44413077
Pd       2.89412360       9.67405657      16.29688672
Pd       6.87451084       6.85745805      15.87371249
Pd       6.90266078      12.71577269      16.10350578
Pd       9.53517514       6.94420393      16.24224512
Pd       5.71535079       4.17472923      16.34107967
Pd       0.63130081       1.47469859      16.89185230
Pd       4.19398580       7.04150511      16.23610743
O        7.32923463       3.46639230      17.19774402
O       10.88061880      10.91842591      15.94862989
O        0.05476980      13.51045897      16.02671024
O        9.17010719       1.54778386      18.47178332
O       10.43803071       1.31127245      18.29315279
O        4.46897834       8.79776648      17.03615044
O        3.23656293       1.96957718      13.94373062
O        1.17466293       3.10027303      17.83719539
O        9.17090442       0.18301833      15.97796059
O        1.39841375      10.81729828      15.64018317
O        2.31650708       0.47375755      17.43150346
O        1.31047007       5.54103803      17.09664256
O        3.96924845       5.11252386      15.76967747
O        8.13446742       8.19247391      16.90175591
O        4.24328995       2.82816647      17.07654379
O       12.61171039       2.39942625      16.34408876
O       10.68530946       5.29961168      16.00241811
O       13.50294639       8.02548442      16.68118751
O        5.98081459       0.74232518      16.00667012
O        7.69123475      10.89217129      16.04824576
