115
Lattice="13.75323 0.0 0.0 0.0 13.75323 0.0 0.0 0.0 23.89" Properties=species:S:1:pos:R:3 trial_index=34 seed_entry_id=30 discovered_entry_id=31 energy=-572.841552734375 status=accepted pbc="T T F"
Pd       0.00000000       0.00000000      10.00000000
Pd       2.75064538       0.00000000      10.00000000
Pd       5.50129076       0.00000000      10.00000000
Pd       8.25193614       0.00000000      10.00000000
Pd      11.00258152       0.00000000      10.00000000
Pd       0.00000000       2.75064538      10.00000000
Pd       2.75064538       2.75064538      10.00000000
Pd       5.50129076       2.75064538      10.00000000
Pd       8.25193614       2.75064538      10.00000000
Pd      11.00258152       2.75064538      10.00000000
Pd       0.00000000       5.50129076      10.00000000
Pd       2.75064538       5.50129076      10.00000000
Pd       5.50129076       5.50129076      10.00000000
Pd       8.25193614       5.50129076      10.00000000
Pd      11.00258152       5.50129076      10.00000000
Pd       0.00000000       8.25193614      10.00000000
Pd       2.75064538       8.25193614      10.00000000
Pd       5.50129076       8.25193614      10.00000000
Pd       8.25193614       8.25193614      10.00000000
Pd      11.00258152       8.25193614      10.00000000
Pd       0.00000000      11.00258152      10.00000000
Pd       2.75064538      11.00258152      10.00000000
Pd       5.50129076      11.00258152      10.00000000
Pd       8.25193614      11.00258152      10.00000000
Pd      11.00258152      11.00258152      10.00000000
Pd       1.37607697       1.42941672      11.99709854
Pd       4.12213361       1.37417208      12.03621652
Pd       6.89229400       1.37908406      11.98993400
Pd       9.57512057       1.39592898      11.89594876
Pd      12.38684272       1.37174114      11.92044161
Pd       1.36589205       4.14158538      11.96304081
Pd       4.12700858       4.15893935      12.05283006
Pd       6.87852861       4.12133555      11.96962820
Pd       9.56728621       4.13975942      11.94281254
Pd      12.36578195       4.13265160      11.93417299
Pd       1.37110082       6.89256210      11.94010419
Pd       4.13935064       6.87026939      11.96482277
Pd       6.87097415       6.85831372      11.95140951
Pd       9.64205429       6.82915781      11.94515418
Pd      12.39111484       6.85622887      11.94896407
Pd       1.37485660       9.66451635      11.95923649
Pd       4.11777592       9.66324146      11.95099537
Pd       6.89476706       9.64088005      11.95142944
Pd       9.64982872       9.59779534      11.89439304
Pd      12.42487279       9.60955999      11.94161946
Pd       1.35849771      12.44441770      11.98373263
Pd       4.11065203      12.42225134      11.99372300
Pd       6.86816975      12.39901143      11.97280504
Pd       9.63028672      12.36702810      11.91406436
Pd      12.39143260      12.35303665      11.98410816
Pd      13.72317452       0.19335637      13.96955754
Pd       2.70150702       0.11870209      14.06441338
Pd       5.46964061       0.03810810      14.02300648
Pd       8.27689872       0.12948713      14.03760945
Pd      10.96975498       0.06485931      13.83374308
Pd      10.50884679       1.17119629      16.19539210
Pd      12.01846999       2.67472698      14.23186287
Pd       1.01500567       2.86704617      14.32436624
Pd       6.29309111       2.80967421      14.26170237
Pd       9.04305785       2.81240997      14.23379202
Pd      13.68219312       5.43243230      13.99736197
Pd       2.65142005       5.49549824      13.97131072
Pd       5.56947825       5.54405100      14.04485009
Pd       8.27087408       5.53658779      13.91322230
Pd      10.95358873       5.24159131      13.98455974
Pd      13.69045817       8.25125718      13.89852163
Pd       2.74734145       8.27974780      13.91502863
Pd       5.46816645       8.28280049      13.96081005
Pd       8.24689859       8.28401216      13.92167193
Pd      10.94468387       8.10875395      14.03192537
Pd      13.66634985      11.00292192      14.02228091
Pd       2.73808541      11.07685818      13.92784291
Pd       5.48130820      10.99694872      13.91027368
Pd       8.18992399      11.03220230      13.99450995
Pd      10.90269796      10.92854842      13.85785788
Pd      12.34407637       6.91393111      16.18411424
Pd       9.38430821       9.36749296      16.33403776
Pd       1.71572610      12.58065372      16.39482218
Pd       1.34170881       7.21111985      15.92395676
Pd      12.19582183       9.63187054      16.10462933
Pd       7.61438194       1.74091685      16.82314055
Pd       3.85225614       0.84992014      16.58450600
Pd       5.97709780       9.72519911      16.35976583
Pd       4.23894382      11.99701664      16.05596947
Pd      11.95040482      12.38286806      15.99105894
Pd      13.01013713       4.27521131      16.71790708
Pd       2.16898166       4.09137666      16.85657080
Pd       7.82907297       4.42040544      16.17450578
Pd       2.81892051       9.67614938      16.29747472
Pd       6.85066493       7.01865727      15.92831742
Pd       6.80173924      12.58156132      16.10724677
Pd       9.63058614       6.50563186      16.33418017
Pd       5.18607907       4.12894419      16.50209141
Pd       0.26638039       1.47830236      16.78798571
Pd       4.06819393       7.02601543      16.24100861
O        6.70300624       3.36039204      17.46842542
O       10.62180597      10.90660338      15.92265236
O       13.56673293      13.46707073      15.99383522
O        8.98496357       2.18886788      18.31007334
O       10.15086653       1.60979222      18.18376153
O        4.38731517       8.78727963      17.03888334
O        4.41788301       2.76422812      13.50582067
O        0.64166630       3.16312530      17.70770157
O        8.71087273       0.22261290      16.09392617
O        1.34359818      10.81953738      15.59542779
O        2.02088811       0.55363212      17.29031550
O        0.83955467       5.58714552      17.06946208
O        3.57321535       5.12982417      15.81651282
O        8.34914648       7.82971409      17.01760852
O        3.71957581       2.81932922      17.05889218
O       12.18852516       2.32918772      16.28395955
O       11.21838150       5.27136533      16.02537582
O       13.54542525       8.36408461      16.73660945
O        5.81676208       0.65923462      16.06556922
O        7.66113328      10.76011751      16.05671983
