115
Lattice="13.75323 0.0 0.0 0.0 13.75323 0.0 0.0 0.0 23.89" Properties=species:S:1:pos:R:3 trial_index=32 seed_entry_id=24 discovered_entry_id=29 energy=-572.9481811523438 status=accepted pbc="T T F"
Pd       0.00000000       0.00000000      10.00000000
Pd       2.75064538       0.00000000      10.00000000
Pd       5.50129076       0.00000000      10.00000000
Pd       8.25193614       0.00000000      10.00000000
Pd      11.00258152       0.00000000      10.00000000
Pd       0.00000000       2.75064538      10.00000000
Pd       2.75064538       2.75064538      10.00000000
Pd       5.50129076       2.75064538      10.00000000
Pd       8.25193614       2.75064538      10.00000000
Pd      11.00258152       2.75064538      10.00000000
Pd       0.00000000       5.50129076      10.00000000
Pd       2.75064538       5.50129076      10.00000000
Pd       5.50129076       5.50129076      10.00000000
Pd       8.25193614       5.50129076      10.00000000
Pd      11.00258152       5.50129076      10.00000000
Pd       0.00000000       8.25193614      10.00000000
Pd       2.75064538       8.25193614      10.00000000
Pd       5.50129076       8.25193614      10.00000000
Pd       8.25193614       8.25193614      10.00000000
Pd      11.00258152       8.25193614      10.00000000
Pd       0.00000000      11.00258152      10.00000000
Pd       2.75064538      11.00258152      10.00000000
Pd       5.50129076      11.00258152      10.00000000
Pd       8.25193614      11.00258152      10.00000000
Pd      11.00258152      11.00258152      10.00000000
Pd       1.36586878       1.44706871      12.00214994
Pd       4.11514185       1.38018403      11.93172711
Pd       6.86412163       1.37423627      11.99565547
Pd       9.57512057       1.39592898      11.89594876
Pd      12.38684272       1.37174114      11.92044161
Pd       1.36239300       4.15142200      11.96383305
Pd       4.08196553       4.12460820      11.97053821
Pd       6.82812433       4.10691098      11.98363432
Pd       9.56728621       4.13975942      11.94281254
Pd      12.36578195       4.13265160      11.93417299
Pd       1.37110082       6.89256210      11.94010419
Pd       4.13935064       6.87026939      11.96482277
Pd       6.87097415       6.85831372      11.95140951
Pd       9.64205429       6.82915781      11.94515418
Pd      12.39111484       6.85622887      11.94896407
Pd       1.36876430       9.66656011      11.97761204
Pd       4.11777592       9.66324146      11.95099537
Pd       6.89476706       9.64088005      11.95142944
Pd       9.64982872       9.59779534      11.89439304
Pd      12.42487279       9.60955999      11.94161946
Pd       1.38421743      12.45456739      11.99253599
Pd       4.13335428      12.41708579      11.99339165
Pd       6.86816975      12.39901143      11.97280504
Pd       9.63028672      12.36702810      11.91406436
Pd      12.41661139      12.35348585      11.98464502
Pd       0.06031517       0.18615731      13.98576621
Pd       2.83721816       0.14237020      14.06967638
Pd       5.55946991       0.00781956      14.02934735
Pd       8.35681954       0.03984039      13.98334039
Pd      11.06043143       0.07329396      13.82439152
Pd      10.90563258       1.33303191      16.13610507
Pd      12.59768200       2.74142407      14.24433069
Pd       1.60219620       2.98204858      14.40979153
Pd       5.32443429       2.73929413      13.97830151
Pd       8.15575023       2.80195250      13.98856255
Pd       0.02047488       5.36472763      14.02049842
Pd       2.79126349       5.47958954      14.00535261
Pd       5.57364113       5.52830122      13.95387027
Pd       8.25701855       5.52044598      13.96888773
Pd      11.00198216       5.21116845      13.93673957
Pd      13.71873637       8.22374884      13.96118998
Pd       2.78311818       8.31020465      13.89851894
Pd       5.49015021       8.28261711      13.97830774
Pd       8.25467165       8.26533404      13.92126003
Pd      10.94808468       8.12525358      13.99163298
Pd      13.69579442      11.00236471      14.04478500
Pd       2.76601544      11.13892318      13.94287073
Pd       5.49903084      10.98308376      13.91558789
Pd       8.20762817      11.00227225      13.98691613
Pd      10.92813940      10.95548866      13.87479154
Pd      12.19181257       6.56983796      16.05733608
Pd       9.39419687       9.58666608      16.32405922
Pd       1.87412804      12.59795284      16.47329038
Pd       1.53681171       7.11279224      15.87607734
Pd      12.18566346       9.54029746      16.04267961
Pd       8.09802463       1.70069045      16.50729918
Pd       4.12988261       0.84416582      16.76707002
Pd       6.02413755       9.75766940      16.39817254
Pd       4.36614936      11.99677114      16.10260604
Pd      12.17223247      12.43096349      15.99252277
Pd      13.59855620       4.30347167      16.64368185
Pd       2.62685785       4.07564874      17.03925037
Pd       8.86665666       4.28745880      16.35330435
Pd       2.88583278       9.71033136      16.29372246
Pd       6.85754103       6.93390792      15.92168469
Pd       6.90680169      12.67349279      16.13417019
Pd       9.52079257       6.87946860      16.27561936
Pd       5.64595243       4.16433773      16.33806682
Pd       0.60130002       1.51403861      16.90521613
Pd       4.19114562       7.05132186      16.30847412
O        7.27787070       3.39481001      17.07987910
O       10.79821572      10.99598478      15.96700888
O        0.03155369      13.54737883      16.02865764
O        9.13536560       1.49165053      18.36303748
O       10.42241043       1.43391112      18.16837260
O        4.43355782       8.82529358      17.08234054
O        3.39226630       2.07705912      14.46060597
O        1.10864850       3.12590044      17.89773516
O        9.24652328       0.22138067      15.84362990
O        1.41368081      10.87313573      15.60720097
O        2.29157168       0.51866223      17.44005223
O        1.26689183       5.58370115      17.15489080
O        3.91008776       5.13057507      15.86969176
O        8.18582020       8.15070141      16.97792570
O        4.22198620       2.86070474      17.19876699
O       12.60768663       2.46873058      16.30623496
O       10.64781211       5.21792240      15.96691621
O       13.46754278       8.05326366      16.28550983
O        5.99237612       0.69743320      16.06372945
O        7.68339213      10.84458753      16.06549992
