115
Lattice="13.75323 0.0 0.0 0.0 13.75323 0.0 0.0 0.0 23.89" Properties=species:S:1:pos:R:3 trial_index=7 seed_entry_id=6 discovered_entry_id=7 energy=-572.9070434570312 status=accepted pbc="T T F"
Pd       0.00000000       0.00000000      10.00000000
Pd       2.75064538       0.00000000      10.00000000
Pd       5.50129076       0.00000000      10.00000000
Pd       8.25193614       0.00000000      10.00000000
Pd      11.00258152       0.00000000      10.00000000
Pd       0.00000000       2.75064538      10.00000000
Pd       2.75064538       2.75064538      10.00000000
Pd       5.50129076       2.75064538      10.00000000
Pd       8.25193614       2.75064538      10.00000000
Pd      11.00258152       2.75064538      10.00000000
Pd       0.00000000       5.50129076      10.00000000
Pd       2.75064538       5.50129076      10.00000000
Pd       5.50129076       5.50129076      10.00000000
Pd       8.25193614       5.50129076      10.00000000
Pd      11.00258152       5.50129076      10.00000000
Pd       0.00000000       8.25193614      10.00000000
Pd       2.75064538       8.25193614      10.00000000
Pd       5.50129076       8.25193614      10.00000000
Pd       8.25193614       8.25193614      10.00000000
Pd      11.00258152       8.25193614      10.00000000
Pd       0.00000000      11.00258152      10.00000000
Pd       2.75064538      11.00258152      10.00000000
Pd       5.50129076      11.00258152      10.00000000
Pd       8.25193614      11.00258152      10.00000000
Pd      11.00258152      11.00258152      10.00000000
Pd       1.35278652       1.40179169      11.95179841
Pd       4.12230872       1.49357850      12.11730801
Pd       6.87721275       1.37835410      11.97258362
Pd       9.57512057       1.39592898      11.89594876
Pd      12.38684272       1.37174114      11.92044161
Pd       1.36088929       4.14828966      11.94365270
Pd       4.10986469       4.13849959      11.97905264
Pd       6.84428629       4.10415143      11.93633522
Pd       9.56728621       4.13975942      11.94281254
Pd      12.36578195       4.13265160      11.93417299
Pd       1.37110082       6.89256210      11.94010419
Pd       4.13935064       6.87026939      11.96482277
Pd       6.87097415       6.85831372      11.95140951
Pd       9.64205429       6.82915781      11.94515418
Pd      12.39111484       6.85622887      11.94896407
Pd       1.37464144       9.65972226      11.96620202
Pd       4.11777592       9.66324146      11.95099537
Pd       6.89476706       9.64088005      11.95142944
Pd       9.64982872       9.59779534      11.89439304
Pd      12.42487279       9.60955999      11.94161946
Pd       1.38944230      12.41759979      11.99394010
Pd       4.14252234      12.47034596      11.98459496
Pd       6.86816975      12.39901143      11.97280504
Pd       9.63028672      12.36702810      11.91406436
Pd      12.42426145      12.34243392      12.00299765
Pd       0.05933015       0.17572154      13.97047080
Pd       2.82454845      13.71013411      14.17085409
Pd       5.59216984       0.13696494      14.02719440
Pd       8.38266966       0.15192367      14.07231967
Pd      11.05010127       0.07408519      13.83614212
Pd      10.84146229       1.17105105      16.21688522
Pd      12.44612288       2.72394272      14.26016198
Pd       1.44072668       2.92808195      14.34504067
Pd       6.85709130       2.82564611      14.27408708
Pd       9.59992603       2.73968245      14.25289423
Pd      13.71009982       5.36988124      14.02582833
Pd       2.70658207       5.47510187      13.96810087
Pd       5.54320132       5.46864508      13.91351895
Pd       8.22220400       5.36910330      13.99694760
Pd      10.97285993       5.21826998      13.98257998
Pd      13.69932990       8.23218486      13.91068174
Pd       2.74324405       8.28690011      13.92096162
Pd       5.47928807       8.28052001      13.94965688
Pd       8.25525731       8.21538124      13.91235882
Pd      10.96556758       8.09602068      14.02115266
Pd       0.03000577      10.98062899      14.08377515
Pd       2.78460932      11.05293430      13.92249593
Pd       5.50063922      11.03277802      13.89611672
Pd       8.22243191      11.02132602      13.97492456
Pd      10.95526327      10.92365597      13.87658148
Pd      12.15190108       6.52901530      16.20579329
Pd       9.34990788       9.54000614      16.30001591
Pd       1.72428775      12.42108571      16.51349271
Pd       1.33591388       7.12475008      15.88675860
Pd      12.21164790       9.40254180      16.15719379
Pd       7.87715495       1.76307731      16.70387433
Pd       4.09761527       0.79503278      16.66602244
Pd       5.93526191       9.74402172      16.32835260
Pd       4.26813008      11.95888044      16.06162878
Pd      12.11247893      12.36328246      15.98154542
Pd      13.52674921       4.20379054      16.61117907
Pd       2.56153175       4.03084760      16.92191498
Pd       8.78444408       4.31793382      16.51636178
Pd       2.63634802       9.69424322      16.31947420
Pd       6.79161435       6.86291608      15.88347273
Pd       6.85505793      12.61379335      16.08927060
Pd       9.46363232       6.86816535      16.24642964
Pd       5.54861016       4.21384523      16.32520123
Pd       0.57124025       1.42649165      16.84943404
Pd       4.07837498       7.07398695      16.20258122
O        7.10736915       3.49992161      17.22875304
O       10.82324042      10.86581872      15.95661023
O       13.71523376      13.48270356      16.00091700
O        9.29572766       2.50952627      18.09987951
O       10.44410859       1.86416895      18.11922394
O        4.29428018       8.86172819      16.94750167
O        3.12487463       1.93026673      13.93162823
O        1.09448574       3.04320125      17.81984453
O        9.02824146       0.24062257      16.09001133
O        0.97096709      10.68088085      15.94838905
O        2.27140628       0.40755397      17.32229678
O        1.19050595       5.50666144      17.09705791
O        3.81987361       5.13932897      15.76995005
O        8.09651094       8.12600388      16.92271855
O        4.13473587       2.80765840      17.03084873
O       12.55223411       2.34086413      16.29640396
O       10.59233770       5.20106448      16.02297367
O       13.39444568       7.94046266      16.74002120
O        6.02668300       0.70030845      16.08160436
O        7.62881894      10.79007505      16.02573712
