115
Lattice="13.75323 0.0 0.0 0.0 13.75323 0.0 0.0 0.0 23.89" Properties=species:S:1:pos:R:3 trial_index=13 seed_entry_id=11 discovered_entry_id=12 energy=-572.7958984375 status=accepted pbc="T T F"
Pd       0.00000000       0.00000000      10.00000000
Pd       2.75064538       0.00000000      10.00000000
Pd       5.50129076       0.00000000      10.00000000
Pd       8.25193614       0.00000000      10.00000000
Pd      11.00258152       0.00000000      10.00000000
Pd       0.00000000       2.75064538      10.00000000
Pd       2.75064538       2.75064538      10.00000000
Pd       5.50129076       2.75064538      10.00000000
Pd       8.25193614       2.75064538      10.00000000
Pd      11.00258152       2.75064538      10.00000000
Pd       0.00000000       5.50129076      10.00000000
Pd       2.75064538       5.50129076      10.00000000
Pd       5.50129076       5.50129076      10.00000000
Pd       8.25193614       5.50129076      10.00000000
Pd      11.00258152       5.50129076      10.00000000
Pd       0.00000000       8.25193614      10.00000000
Pd       2.75064538       8.25193614      10.00000000
Pd       5.50129076       8.25193614      10.00000000
Pd       8.25193614       8.25193614      10.00000000
Pd      11.00258152       8.25193614      10.00000000
Pd       0.00000000      11.00258152      10.00000000
Pd       2.75064538      11.00258152      10.00000000
Pd       5.50129076      11.00258152      10.00000000
Pd       8.25193614      11.00258152      10.00000000
Pd      11.00258152      11.00258152      10.00000000
Pd       1.35795209       1.44354589      12.01174700
Pd       4.10863375       1.38605210      11.93161994
Pd       6.86484176       1.37964712      11.99420556
Pd       9.57512057       1.39592898      11.89594876
Pd      12.38684272       1.37174114      11.92044161
Pd       1.35721876       4.15248249      11.97008673
Pd       4.07620709       4.12171860      11.98705430
Pd       6.82090158       4.10012297      11.98147851
Pd       9.56728621       4.13975942      11.94281254
Pd      12.36578195       4.13265160      11.93417299
Pd       1.37110082       6.89256210      11.94010419
Pd       4.13935064       6.87026939      11.96482277
Pd       6.87097415       6.85831372      11.95140951
Pd       9.64205429       6.82915781      11.94515418
Pd      12.39111484       6.85622887      11.94896407
Pd       1.37771328       9.66995767      11.97229401
Pd       4.11777592       9.66324146      11.95099537
Pd       6.89476706       9.64088005      11.95142944
Pd       9.64982872       9.59779534      11.89439304
Pd      12.42487279       9.60955999      11.94161946
Pd       1.37487830      12.45337398      11.99695887
Pd       4.12291638      12.41473371      11.98720156
Pd       6.86816975      12.39901143      11.97280504
Pd       9.63028672      12.36702810      11.91406436
Pd      12.41216792      12.34570419      11.99223547
Pd       0.04860381       0.16141811      14.00432688
Pd       2.81977494       0.14217224      14.06991017
Pd       5.53722839      13.74956140      13.98318585
Pd       8.36655755       0.06969921      13.99676859
Pd      11.06464215       0.05889998      13.83631931
Pd      10.87979267       1.30099541      16.14510355
Pd      12.58585069       2.72818412      14.24074033
Pd       1.58935383       2.98141698      14.41299361
Pd       5.32416154       2.73255218      14.00945519
Pd       8.14651995       2.81592542      14.00875332
Pd      13.75147171       5.36919852      14.03394794
Pd       2.76051886       5.49622969      14.02002894
Pd       5.55798590       5.51265926      13.94937035
Pd       8.24381955       5.51614373      13.93783491
Pd      11.00743955       5.20988676      13.95917091
Pd      13.73090946       8.21269780      13.91811969
Pd       2.77469356       8.29786108      13.91685395
Pd       5.49736253       8.27295187      13.99122125
Pd       8.25580240       8.29664587      13.91427009
Pd      10.99972303       8.15349609      13.93498056
Pd      13.68305011      10.95699555      14.05615237
Pd       2.76139619      11.13278607      13.93924202
Pd       5.49205354      10.97700013      13.90779236
Pd       8.19522447      11.04620809      14.00073934
Pd      10.91221802      10.94819951      13.89369379
Pd      12.18882169       6.52523381      16.17696691
Pd       9.20264700       9.58260724      16.35699791
Pd       1.85270327      12.56643609      16.47574971
Pd       1.42336357       7.13370462      15.88837905
Pd      12.19312714       9.36133872      16.12677044
Pd       8.07967519       1.81980526      16.57392290
Pd       4.07397834       0.88869937      16.75045952
Pd       6.05735509       9.88855489      16.42483145
Pd       4.36955536      12.04265316      16.06839980
Pd      12.13281674      12.31352787      15.99972997
Pd      13.58107909       4.25187228      16.63395326
Pd       2.60296516       4.08033658      17.03703025
Pd       8.79025402       4.45090639      16.41026567
Pd       2.91521654       9.71630643      16.28522679
Pd       6.89799829       6.86064913      15.92900175
Pd       6.85446812      12.88916413      16.15953836
Pd       9.57153950       7.03110052      15.96392177
Pd       5.61627690       4.23030406      16.37872916
Pd       0.57060197       1.46051101      16.89932453
Pd       4.18139232       7.09200256      16.28511770
O        7.24640719       3.50358135      17.15973613
O       10.80640951      10.80233348      15.97867679
O       13.72664822      13.47653757      16.04137808
O        9.17471787       1.67205171      18.38804022
O       10.44556180       1.47902439      18.17332908
O        4.48511897       8.85722911      17.05993591
O        3.37822773       2.07178138      14.49008742
O        1.09612938       3.08246846      17.87590094
O        9.15515311       0.29106685      15.89993976
O        1.40931690      10.84370412      15.60391643
O        2.25975020       0.48618992      17.44892514
O        1.22882557       5.55505312      17.14374694
O        3.87376945       5.16523984      15.87845602
O        7.60519144       8.50470554      16.93789820
O        4.19502026       2.89091802      17.22535481
O       12.59021985       2.41916707      16.29444107
O       10.61399821       5.22178390      15.98981280
O       13.44686407       7.94608239      16.67539071
O        5.90467057       0.88756263      15.97682260
O        7.65295952      11.07809731      16.07191958
