115
Lattice="13.75323 0.0 0.0 0.0 13.75323 0.0 0.0 0.0 23.89" Properties=species:S:1:pos:R:3 trial_index=19 seed_entry_id=16 discovered_entry_id=17 energy=-572.6596069335938 status=accepted pbc="T T F"
Pd       0.00000000       0.00000000      10.00000000
Pd       2.75064538       0.00000000      10.00000000
Pd       5.50129076       0.00000000      10.00000000
Pd       8.25193614       0.00000000      10.00000000
Pd      11.00258152       0.00000000      10.00000000
Pd       0.00000000       2.75064538      10.00000000
Pd       2.75064538       2.75064538      10.00000000
Pd       5.50129076       2.75064538      10.00000000
Pd       8.25193614       2.75064538      10.00000000
Pd      11.00258152       2.75064538      10.00000000
Pd       0.00000000       5.50129076      10.00000000
Pd       2.75064538       5.50129076      10.00000000
Pd       5.50129076       5.50129076      10.00000000
Pd       8.25193614       5.50129076      10.00000000
Pd      11.00258152       5.50129076      10.00000000
Pd       0.00000000       8.25193614      10.00000000
Pd       2.75064538       8.25193614      10.00000000
Pd       5.50129076       8.25193614      10.00000000
Pd       8.25193614       8.25193614      10.00000000
Pd      11.00258152       8.25193614      10.00000000
Pd       0.00000000      11.00258152      10.00000000
Pd       2.75064538      11.00258152      10.00000000
Pd       5.50129076      11.00258152      10.00000000
Pd       8.25193614      11.00258152      10.00000000
Pd      11.00258152      11.00258152      10.00000000
Pd       1.38179732       1.44851213      11.98823763
Pd       4.12955641       1.37000845      11.92921421
Pd       6.85815026       1.35795029      12.02883727
Pd       9.57512057       1.39592898      11.89594876
Pd      12.38684272       1.37174114      11.92044161
Pd       1.35716863       4.15138882      11.96828376
Pd       4.07199351       4.09948944      11.97654977
Pd       6.82247342       4.07706075      11.96808711
Pd       9.56728621       4.13975942      11.94281254
Pd      12.36578195       4.13265160      11.93417299
Pd       1.37110082       6.89256210      11.94010419
Pd       4.13935064       6.87026939      11.96482277
Pd       6.87097415       6.85831372      11.95140951
Pd       9.64205429       6.82915781      11.94515418
Pd      12.39111484       6.85622887      11.94896407
Pd       1.36825593       9.66517855      11.97846559
Pd       4.11777592       9.66324146      11.95099537
Pd       6.89476706       9.64088005      11.95142944
Pd       9.64982872       9.59779534      11.89439304
Pd      12.42487279       9.60955999      11.94161946
Pd       1.38152540      12.44892069      11.98944801
Pd       4.12718421      12.40426304      11.98001280
Pd       6.86816975      12.39901143      11.97280504
Pd       9.63028672      12.36702810      11.91406436
Pd      12.41421944      12.35479264      11.98664272
Pd       0.05715860       0.19559042      13.94485646
Pd       2.86857616       0.14312169      14.04651536
Pd       5.58643743      13.69240139      14.06204261
Pd       8.33671848       0.07526829      14.04212969
Pd      11.04686368       0.06242921      13.84412636
Pd      10.85554411       1.36267931      16.14169822
Pd      12.58962804       2.74904123      14.23319915
Pd       1.61817133       2.96400987      14.40948223
Pd       5.30303021       2.66237557      14.04949949
Pd       8.11695701       2.80348246      14.01991308
Pd       0.01670934       5.36439642      14.02012436
Pd       2.77649825       5.47958284      14.00834118
Pd       5.53108647       5.44688558      13.89555867
Pd       8.24700323       5.49368339      13.91758675
Pd      10.99837314       5.20692332      13.96228485
Pd      13.73545682       8.22860453      13.95620127
Pd       2.79353956       8.31255820      13.90613774
Pd       5.48609068       8.23189356      14.01926248
Pd       8.21501461       8.29575048      13.91863078
Pd      10.97490615       8.20902020      13.98069123
Pd      13.69373022      11.00023161      14.06230407
Pd       2.77229793      11.13496778      13.93460733
Pd       5.50402174      10.95568309      13.90131961
Pd       8.24023093      11.07905303      13.94739696
Pd      10.97706836      10.98077307      13.90261700
Pd      12.17898654       6.61548478      16.03125364
Pd       9.50175469       9.84217262      16.15895583
Pd       1.90100034      12.63571655      16.40941769
Pd       1.57670819       7.14026410      15.91028564
Pd      12.21589153       9.63109547      16.19081678
Pd       8.01476432       1.81320555      16.55709434
Pd       4.26942034       0.93079669      16.97317999
Pd       6.02851649       9.87824714      16.37789303
Pd       4.40252290      12.12382359      16.04992506
Pd      12.14357163      12.45553624      16.05145854
Pd      13.54309702       4.31413977      16.63170781
Pd       2.56731893       4.12121325      17.06350075
Pd       8.82105519       4.39516336      16.39548666
Pd       2.94428798       9.75311739      16.29467114
Pd       6.81256086       6.61968322      15.94231452
Pd       6.91093438      12.79711728      16.41858103
Pd       9.51116806       6.97103286      16.06370716
Pd       5.58347055       4.22208500      16.37926358
Pd       0.59384508       1.53303623      16.85099797
Pd       4.20251494       7.09716779      16.34399251
O        7.23448915       3.51803678      17.13971439
O       10.94111524      11.06437429      16.68823089
O        0.02800799      13.56848415      15.96120124
O        9.13692286       1.65545404      18.41393028
O       10.41019246       1.56657278      18.17575753
O        4.49463610       8.87522599      17.09209293
O        3.39576167       2.03877298      14.57096792
O        1.05646978       3.13573408      17.88399069
O        9.16208187       0.30677317      15.91609850
O        1.44184672      10.88043934      15.60505685
O        2.33092185       0.56833775      17.31702295
O        1.19082039       5.61155507      17.16044189
O        3.85384442       5.18308477      15.89773974
O        8.11283428       8.38031796      16.08287477
O        4.18194466       2.94669515      17.29217585
O       12.57486719       2.46743206      16.28502308
O       10.62711271       5.28480962      16.01865043
O       13.48158825       8.09877306      16.10169530
O        6.21949686       0.71908564      17.09495127
O        7.64129559      11.01465181      15.96935412
