115
Lattice="13.75323 0.0 0.0 0.0 13.75323 0.0 0.0 0.0 23.89" Properties=species:S:1:pos:R:3 trial_index=25 seed_entry_id=22 discovered_entry_id=23 energy=-573.0064697265625 status=accepted pbc="T T F"
Pd       0.00000000       0.00000000      10.00000000
Pd       2.75064538       0.00000000      10.00000000
Pd       5.50129076       0.00000000      10.00000000
Pd       8.25193614       0.00000000      10.00000000
Pd      11.00258152       0.00000000      10.00000000
Pd       0.00000000       2.75064538      10.00000000
Pd       2.75064538       2.75064538      10.00000000
Pd       5.50129076       2.75064538      10.00000000
Pd       8.25193614       2.75064538      10.00000000
Pd      11.00258152       2.75064538      10.00000000
Pd       0.00000000       5.50129076      10.00000000
Pd       2.75064538       5.50129076      10.00000000
Pd       5.50129076       5.50129076      10.00000000
Pd       8.25193614       5.50129076      10.00000000
Pd      11.00258152       5.50129076      10.00000000
Pd       0.00000000       8.25193614      10.00000000
Pd       2.75064538       8.25193614      10.00000000
Pd       5.50129076       8.25193614      10.00000000
Pd       8.25193614       8.25193614      10.00000000
Pd      11.00258152       8.25193614      10.00000000
Pd       0.00000000      11.00258152      10.00000000
Pd       2.75064538      11.00258152      10.00000000
Pd       5.50129076      11.00258152      10.00000000
Pd       8.25193614      11.00258152      10.00000000
Pd      11.00258152      11.00258152      10.00000000
Pd       1.37450303       1.45225273      11.99840901
Pd       4.13053579       1.39021518      11.93256242
Pd       6.87819887       1.37396644      12.00096061
Pd       9.57512057       1.39592898      11.89594876
Pd      12.38684272       1.37174114      11.92044161
Pd       1.34600373       4.16093738      11.96525886
Pd       4.06692192       4.12756253      11.98332843
Pd       6.82090557       4.10668944      11.99007552
Pd       9.56728621       4.13975942      11.94281254
Pd      12.36578195       4.13265160      11.93417299
Pd       1.37110082       6.89256210      11.94010419
Pd       4.13935064       6.87026939      11.96482277
Pd       6.87097415       6.85831372      11.95140951
Pd       9.64205429       6.82915781      11.94515418
Pd      12.39111484       6.85622887      11.94896407
Pd       1.37930721       9.67731173      11.97124359
Pd       4.11777592       9.66324146      11.95099537
Pd       6.89476706       9.64088005      11.95142944
Pd       9.64982872       9.59779534      11.89439304
Pd      12.42487279       9.60955999      11.94161946
Pd       1.38807118      12.45902230      11.99305710
Pd       4.13520526      12.42540738      11.99457591
Pd       6.86816975      12.39901143      11.97280504
Pd       9.63028672      12.36702810      11.91406436
Pd      12.42274775      12.34626664      11.97791491
Pd       0.08127420       0.18105591      13.97755418
Pd       2.87040298       0.16393978      14.06966827
Pd       5.60262481       0.02564928      14.02741701
Pd       8.41726230       0.07634647      14.05450843
Pd      11.08093120       0.04530221      13.82231425
Pd      10.95190596       1.34384774      16.08123123
Pd      12.66136892       2.76446268      14.19264795
Pd       1.62962810       3.00641745      14.39403002
Pd       5.33253074       2.76143224      13.99677352
Pd       8.15105822       2.81652137      13.99684578
Pd      13.74307787       5.40708297      14.03690517
Pd       2.73938345       5.54034828      13.99730929
Pd       5.55458870       5.54790992      13.94169215
Pd       8.25006565       5.52460241      13.97933481
Pd      10.99812472       5.21152980      13.95498843
Pd      13.70854968       8.23472586      13.91403303
Pd       2.75476486       8.32779334      13.92855693
Pd       5.47859693       8.29886373      13.98211757
Pd       8.25287077       8.27713950      13.92115898
Pd      10.96309361       8.11638080      14.00257409
Pd      13.71137621      10.98530580      14.04837056
Pd       2.77747055      11.15742909      13.94656469
Pd       5.50724265      10.99663875      13.91136820
Pd       8.22043583      11.02897881      13.98286523
Pd      10.94653399      10.94156347      13.87539742
Pd      12.16552999       6.57611466      16.15651711
Pd       9.39700904       9.62278858      16.31662168
Pd       1.91282498      12.62490232      16.47947604
Pd       1.38174310       7.19933653      15.92088004
Pd      12.22166083       9.46212747      16.11027093
Pd       7.89772115       1.84842244      16.66002762
Pd       4.18666660       0.91334219      16.78478271
Pd       6.03043738       9.80439210      16.40041212
Pd       4.40259964      12.06831073      16.07766391
Pd      12.21244955      12.41352372      15.97996569
Pd      13.57158845       4.29217691      16.62974450
Pd       2.55810727       4.13369626      17.05321257
Pd       8.74320762       4.42655634      16.44377385
Pd       2.89442190       9.76413685      16.31083605
Pd       6.82495805       6.92829022      15.92460167
Pd       6.94504877      12.72336620      16.15275128
Pd       9.50280821       6.95064206      16.24584751
Pd       5.50043256       4.30071649      16.34471462
Pd       0.64452741       1.50821768      16.89397198
Pd       4.11872212       7.13531101      16.29921931
O        7.08705155       3.57348191      17.16144763
O       10.86645116      10.95958640      15.95476047
O        0.06508871      13.54202640      16.02044495
O        9.35671268       2.79876743      17.87440814
O       10.57546638       2.27807886      17.85721865
O        4.44077720       8.88239247      17.10092274
O        3.41465717       2.09914895      14.47573052
O        1.08114733       3.12849845      17.91063630
O        9.14878848       0.43115256      15.99416072
O        1.42075517      10.90923773      15.61540776
O        2.34770135       0.54203765      17.44671209
O        1.18250822       5.61482194      17.17824043
O        3.77285102       5.22483943      15.85093318
O        8.14709130       8.20664132      16.95446615
O        4.16249792       2.93367624      17.21165088
O       12.68424469       2.42758516      16.21556989
O       10.58830452       5.24798127      15.96509217
O       13.40256155       8.00236836      16.69415851
O        6.10622799       0.79647009      16.12375403
O        7.69034178      10.88749493      16.05509154
