115
Lattice="13.75323 0.0 0.0 0.0 13.75323 0.0 0.0 0.0 23.89" Properties=species:S:1:pos:R:3 trial_index=21 seed_entry_id=18 discovered_entry_id=19 energy=-573.0078125 status=accepted pbc="T T F"
Pd       0.00000000       0.00000000      10.00000000
Pd       2.75064538       0.00000000      10.00000000
Pd       5.50129076       0.00000000      10.00000000
Pd       8.25193614       0.00000000      10.00000000
Pd      11.00258152       0.00000000      10.00000000
Pd       0.00000000       2.75064538      10.00000000
Pd       2.75064538       2.75064538      10.00000000
Pd       5.50129076       2.75064538      10.00000000
Pd       8.25193614       2.75064538      10.00000000
Pd      11.00258152       2.75064538      10.00000000
Pd       0.00000000       5.50129076      10.00000000
Pd       2.75064538       5.50129076      10.00000000
Pd       5.50129076       5.50129076      10.00000000
Pd       8.25193614       5.50129076      10.00000000
Pd      11.00258152       5.50129076      10.00000000
Pd       0.00000000       8.25193614      10.00000000
Pd       2.75064538       8.25193614      10.00000000
Pd       5.50129076       8.25193614      10.00000000
Pd       8.25193614       8.25193614      10.00000000
Pd      11.00258152       8.25193614      10.00000000
Pd       0.00000000      11.00258152      10.00000000
Pd       2.75064538      11.00258152      10.00000000
Pd       5.50129076      11.00258152      10.00000000
Pd       8.25193614      11.00258152      10.00000000
Pd      11.00258152      11.00258152      10.00000000
Pd       1.37582791       1.45254113      12.00251381
Pd       4.12753466       1.38718204      11.92947203
Pd       6.87518084       1.37769128      12.00355051
Pd       9.57512057       1.39592898      11.89594876
Pd      12.38684272       1.37174114      11.92044161
Pd       1.34895851       4.15882914      11.96518081
Pd       4.06826028       4.12724571      11.98194685
Pd       6.82272806       4.10290834      11.99084633
Pd       9.56728621       4.13975942      11.94281254
Pd      12.36578195       4.13265160      11.93417299
Pd       1.37110082       6.89256210      11.94010419
Pd       4.13935064       6.87026939      11.96482277
Pd       6.87097415       6.85831372      11.95140951
Pd       9.64205429       6.82915781      11.94515418
Pd      12.39111484       6.85622887      11.94896407
Pd       1.37654605       9.67594034      11.96791766
Pd       4.11777592       9.66324146      11.95099537
Pd       6.89476706       9.64088005      11.95142944
Pd       9.64982872       9.59779534      11.89439304
Pd      12.42487279       9.60955999      11.94161946
Pd       1.38245265      12.45899626      11.98593610
Pd       4.12943954      12.42270853      11.98815400
Pd       6.86816975      12.39901143      11.97280504
Pd       9.63028672      12.36702810      11.91406436
Pd      12.41677392      12.34557911      11.97785008
Pd       0.07549143       0.17712938      13.97556240
Pd       2.85626457       0.15786917      14.07011597
Pd       5.58408610       0.02326210      14.01362218
Pd       8.40413040       0.07433481      14.04463083
Pd      11.07639391       0.05514987      13.82202291
Pd      10.88200954       1.33183138      16.08487551
Pd      12.63418374       2.75937734      14.19880255
Pd       1.61474564       3.00246364      14.39918029
Pd       5.32073568       2.76015894      13.99772976
Pd       8.15904449       2.81049705      14.00708497
Pd      13.73385501       5.40199289      14.02947380
Pd       2.73246234       5.53607680      13.99700080
Pd       5.54424058       5.53900939      13.94104227
Pd       8.23610464       5.51739669      13.97622511
Pd      10.98522003       5.21923272      13.95214103
Pd      13.70075167       8.24055017      13.91064932
Pd       2.74718550       8.32652232      13.92460830
Pd       5.47443284       8.29393162      13.97172438
Pd       8.24659766       8.27056195      13.92302502
Pd      10.95395241       8.11760447      14.00146748
Pd      13.69321694      10.99126436      14.04322176
Pd       2.76091019      11.15477272      13.93851724
Pd       5.49361132      10.99727445      13.90639326
Pd       8.20580240      11.02666918      13.98449823
Pd      10.92997967      10.94328000      13.87686374
Pd      12.13336536       6.57920659      16.14298190
Pd       9.36364227       9.61978732      16.31975779
Pd       1.87451518      12.63046490      16.47765118
Pd       1.36045680       7.19335085      15.90953070
Pd      12.19526452       9.46380131      16.10906206
Pd       7.84207954       1.84277128      16.67875524
Pd       4.13711132       0.91736345      16.77350282
Pd       6.00397578       9.81198866      16.38737875
Pd       4.36850314      12.06944537      16.06721150
Pd      12.17342284      12.40961378      15.98129640
Pd      13.51718419       4.28901535      16.62259477
Pd       2.51398005       4.12801487      17.04858825
Pd       8.71551109       4.40981546      16.44647955
Pd       2.85481069       9.77015278      16.30037352
Pd       6.79734019       6.92142515      15.92171008
Pd       6.90932922      12.73150079      16.14896011
Pd       9.46617882       6.94332682      16.24954041
Pd       5.46865698       4.30246274      16.35579833
Pd       0.58634982       1.51014025      16.88820546
Pd       4.09253626       7.13441937      16.27990357
O        7.05554052       3.57752876      17.17769175
O       10.83260858      10.95241792      15.95827838
O        0.02061641      13.54094556      16.01769787
O        9.30221254       2.74131425      17.91051409
O       10.49991119       2.17191426      17.90317442
O        4.40912458       8.88777084      17.07189521
O        3.40169648       2.09063029      14.49001209
O        1.02651331       3.13056361      17.90049323
O        9.07690047       0.41079727      16.00238621
O        1.38417972      10.91702116      15.61187953
O        2.29739814       0.55262628      17.43822834
O        1.13885505       5.60685853      17.16041428
O        3.74229179       5.21875319      15.85776506
O        8.11065107       8.20602960      16.95220580
O        4.12278023       2.93485137      17.21701894
O       12.61331769       2.42308771      16.22202810
O       10.55283505       5.24556226      15.96126905
O       13.37945621       8.00090251      16.67472636
O        6.05557016       0.80367615      16.10724475
O        7.66464627      10.89778942      16.05602805
