115
Lattice="13.75323 0.0 0.0 0.0 13.75323 0.0 0.0 0.0 23.89" Properties=species:S:1:pos:R:3 trial_index=1 seed_entry_id=0 discovered_entry_id=1 energy=-572.275390625 status=accepted pbc="T T F"
Pd       0.00000000       0.00000000      10.00000000
Pd       2.75064538       0.00000000      10.00000000
Pd       5.50129076       0.00000000      10.00000000
Pd       8.25193614       0.00000000      10.00000000
Pd      11.00258152       0.00000000      10.00000000
Pd       0.00000000       2.75064538      10.00000000
Pd       2.75064538       2.75064538      10.00000000
Pd       5.50129076       2.75064538      10.00000000
Pd       8.25193614       2.75064538      10.00000000
Pd      11.00258152       2.75064538      10.00000000
Pd       0.00000000       5.50129076      10.00000000
Pd       2.75064538       5.50129076      10.00000000
Pd       5.50129076       5.50129076      10.00000000
Pd       8.25193614       5.50129076      10.00000000
Pd      11.00258152       5.50129076      10.00000000
Pd       0.00000000       8.25193614      10.00000000
Pd       2.75064538       8.25193614      10.00000000
Pd       5.50129076       8.25193614      10.00000000
Pd       8.25193614       8.25193614      10.00000000
Pd      11.00258152       8.25193614      10.00000000
Pd       0.00000000      11.00258152      10.00000000
Pd       2.75064538      11.00258152      10.00000000
Pd       5.50129076      11.00258152      10.00000000
Pd       8.25193614      11.00258152      10.00000000
Pd      11.00258152      11.00258152      10.00000000
Pd       1.33975812       1.43446410      11.97298765
Pd       4.09054969       1.37851430      11.90197768
Pd       6.83894186       1.36966592      11.93445540
Pd       9.57512057       1.39592898      11.89594876
Pd      12.38684272       1.37174114      11.92044161
Pd       1.34619672       4.15835771      12.03635494
Pd       4.06728171       4.13907752      11.97656385
Pd       6.82162581       4.12434467      11.97442039
Pd       9.56728621       4.13975942      11.94281254
Pd      12.36578195       4.13265160      11.93417299
Pd       1.37110082       6.89256210      11.94010419
Pd       4.13935064       6.87026939      11.96482277
Pd       6.87097415       6.85831372      11.95140951
Pd       9.64205429       6.82915781      11.94515418
Pd      12.39111484       6.85622887      11.94896407
Pd       1.38509333       9.65662527      11.96076388
Pd       4.11777592       9.66324146      11.95099537
Pd       6.89476706       9.64088005      11.95142944
Pd       9.64982872       9.59779534      11.89439304
Pd      12.42487279       9.60955999      11.94161946
Pd       1.37070485      12.41933661      11.98055761
Pd       4.13434774      12.37859363      11.94580324
Pd       6.86816975      12.39901143      11.97280504
Pd       9.63028672      12.36702810      11.91406436
Pd      12.37966463      12.38299520      12.01359037
Pd      13.67998178       0.05550264      13.97708553
Pd       2.70181541       0.07141497      13.92455316
Pd       5.45942643      13.65264032      14.02168061
Pd       8.21780004       0.12266486      13.83871247
Pd      10.93505234      13.61329397      14.15488300
Pd      10.88605666       2.62020266      14.03443555
Pd      13.61565354       2.80067069      14.03261562
Pd       2.61413242       2.84339230      14.09250604
Pd       5.44010885       2.68173521      13.89084831
Pd       8.16953144       2.81245428      13.96831941
Pd      13.72190217       5.53426234      14.06318345
Pd       2.67721299       5.58511134      14.03531670
Pd       5.56714255       5.43616851      14.00669583
Pd       8.27656556       5.46916428      13.98792289
Pd      11.00898458       5.42129500      13.95341034
Pd       0.01927509       8.25492902      13.96083980
Pd       2.80682339       8.34536520      13.91990201
Pd       5.51394781       8.22473097      13.96436744
Pd       8.27788569       8.18292574      13.94476080
Pd      11.02368682       8.20996483      14.02439891
Pd       0.07465499      11.00061614      14.04067675
Pd       2.87979900      11.09898147      13.94207385
Pd       5.58937821      10.93530861      13.98341362
Pd       8.32492376      11.13451946      13.86224645
Pd      11.11270513      10.92827889      13.94956748
Pd      12.47730513       6.83150278      16.31314929
Pd       9.80214650      10.27036436      16.20848014
Pd       2.21620953      12.64729454      16.41216028
Pd       1.58934413       7.28499754      15.99018055
Pd      12.55450144       9.54387297      16.06534252
Pd       8.57942021       1.50297070      16.47369075
Pd       4.83841436       0.87044102      16.86957736
Pd       6.39538706       9.51140638      16.34717586
Pd       4.72599618      11.99322002      16.24614541
Pd      12.56069255      12.35399135      16.22090418
Pd       0.61276399       4.47004198      16.53310416
Pd       3.33868002       4.23866885      16.87106424
Pd       9.31579274       4.63210622      16.55384327
Pd       3.13353020       9.82582830      16.37218430
Pd       6.94635511       6.66054595      16.01455267
Pd       7.24976933      12.51598710      15.95916215
Pd       9.50894523       7.39711287      16.41027721
Pd       6.55055670       3.88427881      16.00972846
Pd       1.23876409       1.61936247      16.71420717
Pd       4.35138112       7.30700824      16.34315337
O        8.03129736       3.27024580      17.21073557
O       11.43179541      10.95810815      16.99711094
O        0.31695020      13.64498756      15.98515384
O       10.80815421       3.25182285      16.88950969
O       10.52519306       2.16855082      16.13280721
O        4.69044353       9.01298376      17.25472773
O        4.02912553       1.44504245      14.80595224
O        1.90608092       3.17138075      17.72484412
O        9.23626325      13.58932781      15.61543891
O        1.63191687      10.92338019      15.62934877
O        2.86517778       0.53516602      17.27376608
O        1.92401822       5.74275142      17.24580105
O        4.15584936       5.52446435      15.54604565
O        7.78621810       8.01472300      17.20995498
O        4.94297025       3.02424365      16.95381430
O       13.47892010       2.77438657      16.03530186
O       10.78880253       5.87066905      15.96203087
O        0.01795585       8.14191643      16.93693903
O        6.81674282       0.49500406      16.93408003
O        8.10121867       9.77708248      15.34575240
