115
Lattice="13.75323 0.0 0.0 0.0 13.75323 0.0 0.0 0.0 23.89" Properties=species:S:1:pos:R:3 entry_id=7 rank=0 energy=-573.0205688476562 parent_id=5 pbc="T T F"
Pd       0.00000000       0.00000000      10.00000000
Pd       2.75064538       0.00000000      10.00000000
Pd       5.50129076       0.00000000      10.00000000
Pd       8.25193614       0.00000000      10.00000000
Pd      11.00258152       0.00000000      10.00000000
Pd       0.00000000       2.75064538      10.00000000
Pd       2.75064538       2.75064538      10.00000000
Pd       5.50129076       2.75064538      10.00000000
Pd       8.25193614       2.75064538      10.00000000
Pd      11.00258152       2.75064538      10.00000000
Pd       0.00000000       5.50129076      10.00000000
Pd       2.75064538       5.50129076      10.00000000
Pd       5.50129076       5.50129076      10.00000000
Pd       8.25193614       5.50129076      10.00000000
Pd      11.00258152       5.50129076      10.00000000
Pd       0.00000000       8.25193614      10.00000000
Pd       2.75064538       8.25193614      10.00000000
Pd       5.50129076       8.25193614      10.00000000
Pd       8.25193614       8.25193614      10.00000000
Pd      11.00258152       8.25193614      10.00000000
Pd       0.00000000      11.00258152      10.00000000
Pd       2.75064538      11.00258152      10.00000000
Pd       5.50129076      11.00258152      10.00000000
Pd       8.25193614      11.00258152      10.00000000
Pd      11.00258152      11.00258152      10.00000000
Pd       1.39066953       1.39450232      11.96526752
Pd       4.11677379       1.39337507      12.00528635
Pd       6.81925057       1.38843120      12.03025139
Pd       9.57512057       1.39592898      11.89594876
Pd      12.38684272       1.37174114      11.92044161
Pd       1.36313382       4.15260465      11.95951730
Pd       4.09690630       4.11172497      11.99025727
Pd       6.81097686       4.11446469      11.99782597
Pd       9.56728621       4.13975942      11.94281254
Pd      12.36578195       4.13265160      11.93417299
Pd       1.37110082       6.89256210      11.94010419
Pd       4.13935064       6.87026939      11.96482277
Pd       6.87097415       6.85831372      11.95140951
Pd       9.64205429       6.82915781      11.94515418
Pd      12.39111484       6.85622887      11.94896407
Pd       1.37934931       9.64592882      11.97912402
Pd       4.11777592       9.66324146      11.95099537
Pd       6.89476706       9.64088005      11.95142944
Pd       9.64982872       9.59779534      11.89439304
Pd      12.42487279       9.60955999      11.94161946
Pd       1.38269885      12.39461888      11.97541059
Pd       4.11670583      12.43379736      11.97947137
Pd       6.86816975      12.39901143      11.97280504
Pd       9.63028672      12.36702810      11.91406436
Pd      12.39002426      12.32699509      11.98551483
Pd      13.75050306       0.03208645      13.86307194
Pd       2.80943506       0.10863178      14.07270109
Pd       5.54025588      13.71553696      14.04393155
Pd       8.28726232      13.74913167      13.97951169
Pd      11.01490224      13.70431976      13.94913011
Pd       7.77827299       2.80120588      14.22166764
Pd      11.26016895       2.66104939      14.74491308
Pd      13.73022502       2.82192865      13.89529515
Pd       2.60558474       2.82944908      14.00800696
Pd       5.20956882       2.69306972      14.20631617
Pd      13.74076283       5.54104258      13.96811402
Pd       2.69733043       5.55753220      13.97497572
Pd       5.48717906       5.49512892      13.95236191
Pd       8.21396607       5.50672163      14.03289113
Pd      10.94111766       5.44688705      13.93972748
Pd       0.07872091       8.27807344      13.97028984
Pd       2.88205979       8.33296630      13.93646186
Pd       5.60956538       8.26033002      14.00524364
Pd       8.35541185       8.24805983      13.92863732
Pd      11.07090741       8.25972738      13.93891702
Pd       0.00406620      10.98002076      14.11135245
Pd       2.77009743      11.05986820      13.93000253
Pd       5.50115975      10.98001846      13.88816655
Pd       8.27077925      10.97369081      13.90488447
Pd      11.00243804      10.96204598      14.02673067
Pd      12.22966663       6.63321372      16.07014764
Pd       9.44913403      10.83294957      16.47302785
Pd       1.64669469      12.43073020      16.18197279
Pd       1.71098480       7.23372206      15.99801369
Pd      12.25381487       9.59377986      16.44861928
Pd       8.09790662       1.71760171      16.72755241
Pd       4.47633013       0.82485531      16.55486352
Pd       5.93462657       9.83701663      16.39119496
Pd       4.28681564      12.00056506      16.03403770
Pd      12.09811965      12.41981640      16.24204675
Pd       0.24082505       4.51901134      16.50072311
Pd       3.08495909       4.19841405      16.58968708
Pd       9.31762657       4.73671006      16.91433683
Pd       2.59125681       9.81076548      16.42803527
Pd       7.07175423       7.07538588      15.99810058
Pd       6.84268560      12.69001316      16.41696253
Pd       9.86824205       8.15682804      16.30811299
Pd       6.24212091       4.44412848      16.45426160
Pd       0.77205343       1.62623863      16.34358839
Pd       4.37560649       7.32652030      16.36153715
O        7.71511922       3.58736496      17.42418224
O       11.18590014      11.02641880      17.26438126
O       13.57926496      13.66806428      15.87781856
O       10.38582103       3.13306182      17.46706195
O       10.09735065       2.15251467      16.56753286
O        4.28413591       9.10220928      17.13276963
O        9.68291993       2.69186961      13.56406748
O        1.58747925       3.12030036      17.30208865
O        8.60019788      13.71595755      15.97759270
O        0.83217910      10.64692712      16.07311921
O        2.49939342       0.50939334      16.24473561
O        1.72703658       5.64313469      17.17715179
O        4.54716467       5.42508994      15.87960823
O        8.71714866       6.66842860      17.02435978
O        4.60093712       2.86684334      16.24823705
O       12.91948278       2.85869339      15.90915943
O       11.00078998       5.15729750      15.94819957
O       13.50426186       8.10326621      16.06684245
O        6.33771696       0.70199082      17.15977155
O        7.56852692      10.87749871      15.88989085
115
Lattice="13.75323 0.0 0.0 0.0 13.75323 0.0 0.0 0.0 23.89" Properties=species:S:1:pos:R:3 entry_id=5 rank=1 energy=-573.0182495117188 parent_id=4 pbc="T T F"
Pd       0.00000000       0.00000000      10.00000000
Pd       2.75064538       0.00000000      10.00000000
Pd       5.50129076       0.00000000      10.00000000
Pd       8.25193614       0.00000000      10.00000000
Pd      11.00258152       0.00000000      10.00000000
Pd       0.00000000       2.75064538      10.00000000
Pd       2.75064538       2.75064538      10.00000000
Pd       5.50129076       2.75064538      10.00000000
Pd       8.25193614       2.75064538      10.00000000
Pd      11.00258152       2.75064538      10.00000000
Pd       0.00000000       5.50129076      10.00000000
Pd       2.75064538       5.50129076      10.00000000
Pd       5.50129076       5.50129076      10.00000000
Pd       8.25193614       5.50129076      10.00000000
Pd      11.00258152       5.50129076      10.00000000
Pd       0.00000000       8.25193614      10.00000000
Pd       2.75064538       8.25193614      10.00000000
Pd       5.50129076       8.25193614      10.00000000
Pd       8.25193614       8.25193614      10.00000000
Pd      11.00258152       8.25193614      10.00000000
Pd       0.00000000      11.00258152      10.00000000
Pd       2.75064538      11.00258152      10.00000000
Pd       5.50129076      11.00258152      10.00000000
Pd       8.25193614      11.00258152      10.00000000
Pd      11.00258152      11.00258152      10.00000000
Pd       1.39136201       1.39535210      11.96950733
Pd       4.11343168       1.39806521      12.01313916
Pd       6.81570417       1.39251816      12.02252178
Pd       9.57512057       1.39592898      11.89594876
Pd      12.38684272       1.37174114      11.92044161
Pd       1.36878484       4.14641406      11.97301696
Pd       4.09020197       4.10940621      12.00014982
Pd       6.80357058       4.11831711      11.99321967
Pd       9.56728621       4.13975942      11.94281254
Pd      12.36578195       4.13265160      11.93417299
Pd       1.37110082       6.89256210      11.94010419
Pd       4.13935064       6.87026939      11.96482277
Pd       6.87097415       6.85831372      11.95140951
Pd       9.64205429       6.82915781      11.94515418
Pd      12.39111484       6.85622887      11.94896407
Pd       1.37677302       9.64388669      11.96739336
Pd       4.11777592       9.66324146      11.95099537
Pd       6.89476706       9.64088005      11.95142944
Pd       9.64982872       9.59779534      11.89439304
Pd      12.42487279       9.60955999      11.94161946
Pd       1.37168605      12.39794540      11.96259149
Pd       4.11971360      12.42640556      11.96038099
Pd       6.86816975      12.39901143      11.97280504
Pd       9.63028672      12.36702810      11.91406436
Pd      12.38452165      12.33529317      11.98707743
Pd       0.01158734       0.04300100      13.88301102
Pd       2.78694090       0.04932349      14.05248761
Pd       5.50436800      13.75186447      14.02891668
Pd       8.27476707       0.00407523      13.96497245
Pd      11.01538425      13.71915964      13.94540909
Pd       7.77233296       2.81518179      14.20291818
Pd      11.26294045       2.66695736      14.74871972
Pd      13.74214660       2.82204405      13.90572199
Pd       2.60673726       2.77494392      14.04671835
Pd       5.20504449       2.72493024      14.22349472
Pd      13.73936514       5.55121441      13.97198608
Pd       2.69330448       5.54000759      13.98932278
Pd       5.48968044       5.51810548      13.94771628
Pd       8.21769569       5.51121614      14.02982648
Pd      10.94775363       5.44094818      13.95008810
Pd       0.07094468       8.29570366      13.96709760
Pd       2.87405215       8.33060160      13.92387274
Pd       5.59865819       8.28245076      14.00284889
Pd       8.34491255       8.25139128      13.91897039
Pd      11.06390348       8.26059793      13.92636982
Pd      13.74584047      11.00574649      14.08295646
Pd       2.75310591      11.06147702      13.90989111
Pd       5.49129848      10.99955172      13.88400299
Pd       8.26507180      10.97280283      13.90428945
Pd      10.99423390      10.96961317      14.02757233
Pd      12.21908127       6.69221546      16.06803511
Pd       9.43509861      10.87839142      16.46667004
Pd       1.67369097      12.53248468      16.34813009
Pd       1.69394619       7.27199726      15.98975643
Pd      12.23095133       9.64727699      16.42192625
Pd       8.06495729       1.75900504      16.69409555
Pd       4.30898482       0.88140548      16.58983207
Pd       5.91817534       9.87014422      16.39030722
Pd       4.25099015      12.07097028      15.98808078
Pd      12.12599932      12.47105275      16.23005199
Pd       0.21386007       4.57505427      16.51832563
Pd       3.03127473       4.25192044      16.62734780
Pd       9.30747590       4.77007322      16.90083592
Pd       2.61344556       9.85928683      16.39430021
Pd       7.05010445       7.08696348      15.98235600
Pd       6.80229332      12.72477856      16.33940470
Pd       9.83966890       8.19860106      16.28600814
Pd       6.20117028       4.46837481      16.43673200
Pd       0.77573221       1.65893719      16.48268679
Pd       4.35735190       7.34915104      16.36019539
O        7.69184420       3.62743995      17.39180197
O       11.17791315      11.09015372      17.23480554
O       13.62313884      13.71476957      15.90154834
O       10.36294357       3.16180051      17.46473814
O       10.07475602       2.17557486      16.57408956
O        4.27479220       9.12366716      17.13581535
O        9.68539143       2.69347178      13.56743035
O        1.52648006       3.21005314      17.39417093
O        8.57456610      13.75082707      15.96433981
O        0.90105506      10.75209059      15.97244691
O        2.37403498       0.52615171      16.96587988
O        1.68657334       5.71362541      17.21036965
O        4.49948824       5.44862446      15.86657078
O        8.70211416       6.70032750      17.00464944
O        4.51118423       2.90049840      16.25678023
O       12.95314334       2.88489467      15.87448602
O       11.00544906       5.19909800      15.96503752
O       13.49636119       8.16400805      16.06619377
O        6.25111775       0.74855412      16.98053985
O        7.55265470      10.90322916      15.88997884
115
Lattice="13.75323 0.0 0.0 0.0 13.75323 0.0 0.0 0.0 23.89" Properties=species:S:1:pos:R:3 entry_id=6 rank=2 energy=-573.0059204101562 parent_id=5 pbc="T T F"
Pd       0.00000000       0.00000000      10.00000000
Pd       2.75064538       0.00000000      10.00000000
Pd       5.50129076       0.00000000      10.00000000
Pd       8.25193614       0.00000000      10.00000000
Pd      11.00258152       0.00000000      10.00000000
Pd       0.00000000       2.75064538      10.00000000
Pd       2.75064538       2.75064538      10.00000000
Pd       5.50129076       2.75064538      10.00000000
Pd       8.25193614       2.75064538      10.00000000
Pd      11.00258152       2.75064538      10.00000000
Pd       0.00000000       5.50129076      10.00000000
Pd       2.75064538       5.50129076      10.00000000
Pd       5.50129076       5.50129076      10.00000000
Pd       8.25193614       5.50129076      10.00000000
Pd      11.00258152       5.50129076      10.00000000
Pd       0.00000000       8.25193614      10.00000000
Pd       2.75064538       8.25193614      10.00000000
Pd       5.50129076       8.25193614      10.00000000
Pd       8.25193614       8.25193614      10.00000000
Pd      11.00258152       8.25193614      10.00000000
Pd       0.00000000      11.00258152      10.00000000
Pd       2.75064538      11.00258152      10.00000000
Pd       5.50129076      11.00258152      10.00000000
Pd       8.25193614      11.00258152      10.00000000
Pd      11.00258152      11.00258152      10.00000000
Pd       1.39474890       1.40152396      11.96847582
Pd       4.11967144       1.40340019      12.01256993
Pd       6.81397601       1.39118501      12.02201557
Pd       9.57512057       1.39592898      11.89594876
Pd      12.38684272       1.37174114      11.92044161
Pd       1.36836014       4.15063876      11.97132892
Pd       4.08897448       4.11141839      12.00409836
Pd       6.80021367       4.12043559      11.99289630
Pd       9.56728621       4.13975942      11.94281254
Pd      12.36578195       4.13265160      11.93417299
Pd       1.37110082       6.89256210      11.94010419
Pd       4.13935064       6.87026939      11.96482277
Pd       6.87097415       6.85831372      11.95140951
Pd       9.64205429       6.82915781      11.94515418
Pd      12.39111484       6.85622887      11.94896407
Pd       1.37638292       9.64789676      11.96570275
Pd       4.11777592       9.66324146      11.95099537
Pd       6.89476706       9.64088005      11.95142944
Pd       9.64982872       9.59779534      11.89439304
Pd      12.42487279       9.60955999      11.94161946
Pd       1.36748360      12.40110538      11.95641292
Pd       4.11124936      12.41765073      11.97949088
Pd       6.86816975      12.39901143      11.97280504
Pd       9.63028672      12.36702810      11.91406436
Pd      12.37588180      12.34417728      11.97885102
Pd       0.00795781       0.03751174      13.88290444
Pd       2.79363218       0.09009486      14.04429945
Pd       5.50578369       0.00334538      14.03935795
Pd       8.27705628       0.00603301      13.96283138
Pd      11.01562340      13.71982738      13.95783618
Pd       7.75441850       2.81294089      14.19535873
Pd      11.26211428       2.67962208      14.73243435
Pd      13.74514228       2.81195774      13.90184245
Pd       2.60006998       2.80055350      14.05357287
Pd       5.18700484       2.72908041      14.24770956
Pd      13.73548851       5.54222546      13.96651190
Pd       2.68939415       5.55415272      13.99608388
Pd       5.48823642       5.52614236      13.94395368
Pd       8.21500927       5.50866717      14.02977241
Pd      10.94807982       5.44911777      13.95818062
Pd       0.07120234       8.27527248      13.95950866
Pd       2.88033535       8.32759401      13.90999876
Pd       5.58929476       8.28726085      14.02191150
Pd       8.33499095       8.25151410      13.91169846
Pd      11.05526964       8.27150268      13.92903008
Pd      13.65321242      10.98796499      14.06365121
Pd       2.74118661      11.07929558      13.93661374
Pd       5.49184982      10.99280974      13.89540326
Pd       8.25331514      10.97248899      13.90339810
Pd      10.96391740      10.98525860      14.01484119
Pd      12.23422640       6.75473461      16.06193212
Pd       9.46038611      10.91100003      16.45605069
Pd       1.83190078      12.65762066      16.36507343
Pd       1.73654003       7.34039089      16.01635356
Pd      12.20695834       9.66147398      16.36585663
Pd       8.08832227       1.79909301      16.68659792
Pd       4.32021372       0.93017640      16.65565715
Pd       5.98968649       9.86449125      16.45141514
Pd       4.34798340      12.10635278      16.02971372
Pd      12.25368364      12.45571256      16.23379079
Pd       0.18237838       4.61013464      16.50989384
Pd       2.99504262       4.29009159      16.64865577
Pd       9.31464609       4.80782595      16.89849527
Pd       2.86447952       9.84562142      16.39576624
Pd       7.04849844       7.09117849      15.97663325
Pd       6.85371990      12.76788032      16.35253996
Pd       9.80265440       8.21569996      16.28374011
Pd       6.17386370       4.48628906      16.43517062
Pd       0.78895830       1.70016206      16.52642861
Pd       4.39305688       7.33849539      16.43023963
O        7.69157823       3.66757286      17.37480981
O       11.21080688      11.12451329      17.20631366
O       13.72968839      13.71583889      15.90665504
O       10.38190721       3.20565622      17.44931782
O       10.09249118       2.21748558      16.56157557
O        4.41386130       9.07377472      17.30252574
O        9.67286260       2.69518926      13.56630341
O        1.48010359       3.27412635      17.43498677
O        8.61766949       0.04137625      15.95847273
O        1.36059023      10.88868441      15.61443076
O        2.39355005       0.62682324      17.12510718
O        1.64559319       5.76134247      17.20118883
O        4.46498183       5.46325036      15.85470234
O        8.68297769       6.71874744      17.02510399
O        4.48876755       2.94120287      16.29273350
O       12.95507577       2.89920518      15.85651543
O       11.01493545       5.26258370      15.97545952
O       13.53547921       8.22019425      16.05896201
O        6.27831475       0.79055000      16.97066164
O        7.57676768      10.93988361      15.89765719
115
Lattice="13.75323 0.0 0.0 0.0 13.75323 0.0 0.0 0.0 23.89" Properties=species:S:1:pos:R:3 entry_id=8 rank=3 energy=-572.9844970703125 parent_id=7 pbc="T T F"
Pd       0.00000000       0.00000000      10.00000000
Pd       2.75064538       0.00000000      10.00000000
Pd       5.50129076       0.00000000      10.00000000
Pd       8.25193614       0.00000000      10.00000000
Pd      11.00258152       0.00000000      10.00000000
Pd       0.00000000       2.75064538      10.00000000
Pd       2.75064538       2.75064538      10.00000000
Pd       5.50129076       2.75064538      10.00000000
Pd       8.25193614       2.75064538      10.00000000
Pd      11.00258152       2.75064538      10.00000000
Pd       0.00000000       5.50129076      10.00000000
Pd       2.75064538       5.50129076      10.00000000
Pd       5.50129076       5.50129076      10.00000000
Pd       8.25193614       5.50129076      10.00000000
Pd      11.00258152       5.50129076      10.00000000
Pd       0.00000000       8.25193614      10.00000000
Pd       2.75064538       8.25193614      10.00000000
Pd       5.50129076       8.25193614      10.00000000
Pd       8.25193614       8.25193614      10.00000000
Pd      11.00258152       8.25193614      10.00000000
Pd       0.00000000      11.00258152      10.00000000
Pd       2.75064538      11.00258152      10.00000000
Pd       5.50129076      11.00258152      10.00000000
Pd       8.25193614      11.00258152      10.00000000
Pd      11.00258152      11.00258152      10.00000000
Pd       1.38874758       1.39973076      11.96558166
Pd       4.11225532       1.39092906      12.00924735
Pd       6.81632645       1.38864668      12.03373262
Pd       9.57512057       1.39592898      11.89594876
Pd      12.38684272       1.37174114      11.92044161
Pd       1.35655709       4.15979085      11.96967806
Pd       4.09206077       4.10882076      11.99262918
Pd       6.81085394       4.11212226      11.99398204
Pd       9.56728621       4.13975942      11.94281254
Pd      12.36578195       4.13265160      11.93417299
Pd       1.37110082       6.89256210      11.94010419
Pd       4.13935064       6.87026939      11.96482277
Pd       6.87097415       6.85831372      11.95140951
Pd       9.64205429       6.82915781      11.94515418
Pd      12.39111484       6.85622887      11.94896407
Pd       1.38124602       9.65130914      11.96989431
Pd       4.11777592       9.66324146      11.95099537
Pd       6.89476706       9.64088005      11.95142944
Pd       9.64982872       9.59779534      11.89439304
Pd      12.42487279       9.60955999      11.94161946
Pd       1.38227237      12.40032868      11.97153402
Pd       4.11622132      12.43529079      11.97893877
Pd       6.86816975      12.39901143      11.97280504
Pd       9.63028672      12.36702810      11.91406436
Pd      12.38846716      12.32958915      11.98070435
Pd      13.74685997       0.04346689      13.85760914
Pd       2.79795452       0.09791057      14.08325612
Pd       5.53063078      13.71052774      14.04749819
Pd       8.27872188       0.00251006      13.98205293
Pd      11.00847574      13.69986635      13.94556958
Pd       7.77651872       2.81152414      14.22757148
Pd      11.25253113       2.65660857      14.74671737
Pd      13.72463690       2.83711313      13.90527171
Pd       2.60142112       2.82241381      14.00831989
Pd       5.20730881       2.68456782      14.20609622
Pd      13.72267195       5.56672941      13.99381926
Pd       2.69107059       5.56004293      13.98275749
Pd       5.49021409       5.49110510      13.94341962
Pd       8.22149137       5.51332137      14.02311760
Pd      10.95734428       5.47953295      13.94301114
Pd       0.03761543       8.28328750      13.95139419
Pd       2.84282335       8.31839160      13.92987227
Pd       5.58942946       8.26335589      13.99543063
Pd       8.35616574       8.25736299      13.93609179
Pd      11.08415152       8.24755366      13.95323925
Pd      13.75238831      10.97885340      14.07651930
Pd       2.76450612      11.05285521      13.92347660
Pd       5.48983529      10.98379469      13.89230845
Pd       8.24778587      10.98330621      13.90781404
Pd      10.98610229      10.94740540      13.99736850
Pd      12.26608252       6.56493468      16.26457805
Pd       9.43784478      10.72557537      16.40957731
Pd       1.59582537      12.37476791      16.16793961
Pd       1.52339883       7.20270370      15.91183224
Pd      12.34692594       9.39678521      16.38835985
Pd       8.06778806       1.70453087      16.73299098
Pd       4.44671350       0.80137276      16.55524111
Pd       5.89476041       9.81535629      16.38939797
Pd       4.24915434      11.97393250      16.04471661
Pd      12.12897816      12.32694553      16.17434645
Pd       0.23719455       4.47151663      16.51078898
Pd       3.08058359       4.17661779      16.57581555
Pd       9.30352828       4.70644331      16.90523115
Pd       2.53929760       9.75930368      16.39870671
Pd       7.03246356       7.06136014      15.97727658
Pd       6.81030494      12.67044247      16.42211263
Pd       9.86724969       8.05685182      16.28706270
Pd       6.22389877       4.42726479      16.44967668
Pd       0.76043677       1.59547020      16.34415202
Pd       4.31752477       7.31297958      16.32033737
O        7.69597675       3.57583395      17.43255377
O       11.21840723      10.87928004      17.08976539
O       13.55218452      13.65081020      15.86817054
O       10.37045317       3.10733436      17.45998643
O       10.07490250       2.12441900      16.56296122
O        4.23702199       9.07819065      17.11087947
O        9.67933520       2.69872942      13.56205832
O        1.59581757       3.08379414      17.30326885
O        8.55861240      13.70287746      15.98064095
O        0.77216024      10.57349271      16.03890300
O        2.46843625       0.45679592      16.25686869
O        1.72335257       5.62100618      17.13603240
O        4.52729173       5.40709186      15.85727422
O        8.66081988       6.62300023      17.02204560
O        4.59928659       2.84799053      16.25149379
O       12.90425721       2.82965615      15.92491493
O       10.98047843       5.15888177      15.92810040
O       13.56328747       7.88764084      16.82591963
O        6.30679772       0.68322022      17.16694310
O        7.53627038      10.85381518      15.90607784
115
Lattice="13.75323 0.0 0.0 0.0 13.75323 0.0 0.0 0.0 23.89" Properties=species:S:1:pos:R:3 entry_id=4 rank=4 energy=-572.9825439453125 parent_id=3 pbc="T T F"
Pd       0.00000000       0.00000000      10.00000000
Pd       2.75064538       0.00000000      10.00000000
Pd       5.50129076       0.00000000      10.00000000
Pd       8.25193614       0.00000000      10.00000000
Pd      11.00258152       0.00000000      10.00000000
Pd       0.00000000       2.75064538      10.00000000
Pd       2.75064538       2.75064538      10.00000000
Pd       5.50129076       2.75064538      10.00000000
Pd       8.25193614       2.75064538      10.00000000
Pd      11.00258152       2.75064538      10.00000000
Pd       0.00000000       5.50129076      10.00000000
Pd       2.75064538       5.50129076      10.00000000
Pd       5.50129076       5.50129076      10.00000000
Pd       8.25193614       5.50129076      10.00000000
Pd      11.00258152       5.50129076      10.00000000
Pd       0.00000000       8.25193614      10.00000000
Pd       2.75064538       8.25193614      10.00000000
Pd       5.50129076       8.25193614      10.00000000
Pd       8.25193614       8.25193614      10.00000000
Pd      11.00258152       8.25193614      10.00000000
Pd       0.00000000      11.00258152      10.00000000
Pd       2.75064538      11.00258152      10.00000000
Pd       5.50129076      11.00258152      10.00000000
Pd       8.25193614      11.00258152      10.00000000
Pd      11.00258152      11.00258152      10.00000000
Pd       1.39039330       1.40742905      11.97062900
Pd       4.11559326       1.39177622      12.01753559
Pd       6.80788590       1.38437921      12.03334563
Pd       9.57512057       1.39592898      11.89594876
Pd      12.38684272       1.37174114      11.92044161
Pd       1.36393964       4.15904123      11.98183894
Pd       4.08716562       4.10079652      12.00978417
Pd       6.80571326       4.11131265      11.98848319
Pd       9.56728621       4.13975942      11.94281254
Pd      12.36578195       4.13265160      11.93417299
Pd       1.37110082       6.89256210      11.94010419
Pd       4.13935064       6.87026939      11.96482277
Pd       6.87097415       6.85831372      11.95140951
Pd       9.64205429       6.82915781      11.94515418
Pd      12.39111484       6.85622887      11.94896407
Pd       1.38935526       9.65049358      11.95600909
Pd       4.11777592       9.66324146      11.95099537
Pd       6.89476706       9.64088005      11.95142944
Pd       9.64982872       9.59779534      11.89439304
Pd      12.42487279       9.60955999      11.94161946
Pd       1.37852467      12.41433935      11.95750030
Pd       4.12401568      12.41375132      11.97970076
Pd       6.86816975      12.39901143      11.97280504
Pd       9.63028672      12.36702810      11.91406436
Pd      12.38050666      12.34974471      11.97193526
Pd       0.00432531       0.05209829      13.89771280
Pd       2.79527124       0.09038769      14.05675278
Pd       5.50701026      13.71584699      14.05975688
Pd       8.27363524       0.00248051      13.96010987
Pd      11.02016460      13.68726962      13.96588378
Pd       7.75055336       2.81357287      14.20941739
Pd      11.26115865       2.64351607      14.72514238
Pd      13.74324561       2.82769006      13.90948867
Pd       2.59503574       2.79939185      14.05620641
Pd       5.17911453       2.67103181      14.26773657
Pd      13.72557496       5.56825482      14.00043971
Pd       2.68473071       5.55544038      14.01125315
Pd       5.49695281       5.48529143      13.93821625
Pd       8.23484705       5.50714679      14.01604688
Pd      10.97455318       5.44316652      13.97683114
Pd       0.02450829       8.27269727      13.93243413
Pd       2.83853169       8.29914532      13.92439773
Pd       5.56513836       8.26059098      14.01161413
Pd       8.30621358       8.25457571      13.92008563
Pd      11.02768547       8.20943628      13.87557056
Pd      13.72206221      11.00354383      14.00254684
Pd       2.79126163      11.07769675      13.92200857
Pd       5.53233560      10.96775956      13.90779332
Pd       8.28312616      10.97610611      13.92443026
Pd      11.00501590      10.95528381      14.00015367
Pd      12.28993683       6.67310138      16.30399288
Pd       9.64081840      10.71801042      16.47212521
Pd       1.85659816      12.59488853      16.36429574
Pd       1.50364364       7.30936801      15.96638188
Pd      12.32850548       9.43004333      15.92599416