115
Lattice="13.75323 0.0 0.0 0.0 13.75323 0.0 0.0 0.0 23.89" Properties=species:S:1:pos:R:3 entry_id=8 rank=10 energy=-569.76904296875 parent_id=2 pbc="T T F"
Pd       0.00000000       0.00000000      10.00000000
Pd       2.75064538       0.00000000      10.00000000
Pd       5.50129076       0.00000000      10.00000000
Pd       8.25193614       0.00000000      10.00000000
Pd      11.00258152       0.00000000      10.00000000
Pd       0.00000000       2.75064538      10.00000000
Pd       2.75064538       2.75064538      10.00000000
Pd       5.50129076       2.75064538      10.00000000
Pd       8.25193614       2.75064538      10.00000000
Pd      11.00258152       2.75064538      10.00000000
Pd       0.00000000       5.50129076      10.00000000
Pd       2.75064538       5.50129076      10.00000000
Pd       5.50129076       5.50129076      10.00000000
Pd       8.25193614       5.50129076      10.00000000
Pd      11.00258152       5.50129076      10.00000000
Pd       0.00000000       8.25193614      10.00000000
Pd       2.75064538       8.25193614      10.00000000
Pd       5.50129076       8.25193614      10.00000000
Pd       8.25193614       8.25193614      10.00000000
Pd      11.00258152       8.25193614      10.00000000
Pd       0.00000000      11.00258152      10.00000000
Pd       2.75064538      11.00258152      10.00000000
Pd       5.50129076      11.00258152      10.00000000
Pd       8.25193614      11.00258152      10.00000000
Pd      11.00258152      11.00258152      10.00000000
Pd       1.36746269       1.36481620      12.03146336
Pd       4.14034380       1.37751139      11.96824946
Pd       6.89027615       1.34819082      12.03789116
Pd       9.57512057       1.39592898      11.89594876
Pd      12.38684272       1.37174114      11.92044161
Pd       1.37569449       4.10870782      12.00480700
Pd       4.10750809       4.10590775      11.96090428
Pd       6.86994895       4.09350043      11.99606916
Pd       9.56728621       4.13975942      11.94281254
Pd      12.36578195       4.13265160      11.93417299
Pd       1.37110082       6.89256210      11.94010419
Pd       4.13935064       6.87026939      11.96482277
Pd       6.87097415       6.85831372      11.95140951
Pd       9.64205429       6.82915781      11.94515418
Pd      12.39111484       6.85622887      11.94896407
Pd       1.35371525       9.68057446      11.98693620
Pd       4.11777592       9.66324146      11.95099537
Pd       6.89476706       9.64088005      11.95142944
Pd       9.64982872       9.59779534      11.89439304
Pd      12.42487279       9.60955999      11.94161946
Pd       1.40676685      12.40867450      12.01510316
Pd       4.14943494      12.38228914      12.02775242
Pd       6.86816975      12.39901143      11.97280504
Pd       9.63028672      12.36702810      11.91406436
Pd      12.41954551      12.34673135      11.96493531
Pd      13.70761294      13.72350410      14.04484645
Pd       2.79331000       0.00666700      14.10805345
Pd       5.57222696       0.00057669      14.11784440
Pd       8.30990051      13.69559487      14.12377259
Pd      10.98174951       0.10177791      13.76007981
Pd      13.69793830       2.75773318      14.00021596
Pd       2.75108199       2.77643675      14.08368942
Pd       5.50081529       2.83220464      14.03376414
Pd       8.32152629       2.75111149      14.11714492
Pd      10.98261262       2.77742390      13.98538048
Pd       0.04067239       5.48719602      14.01928386
Pd       2.75072931       5.51222679      13.97988742
Pd       5.48214503       5.51715923      13.88884673
Pd       8.30121512       5.52328303      13.97559380
Pd      11.06811882       5.46853446      13.97707495
Pd      13.68288390       8.26879321      13.94640947
Pd       2.71591320       8.27395137      13.87418305
Pd       5.42107949       8.21682183      13.94012162
Pd       8.18042752       8.25075988      13.87944146
Pd      10.90368713       8.15667912      13.95524963
Pd       0.00394273      10.95556243      14.16137838
Pd       2.77933582      11.06626849      13.99627809
Pd       5.59971537      10.92469431      13.98409339
Pd       8.40669258      10.94644317      13.93424300
Pd      11.05773562      10.89726541      13.89992319
Pd      12.52985520       6.70011326      16.20897478
Pd       9.11462191       7.81960448      16.33042547
Pd       2.17443127      12.55469582      16.80584724
Pd       1.44110847       7.11304573      15.92712033
Pd      11.61057195       9.34400980      16.24281563
Pd       9.61981024       1.36947929      16.30324606
Pd       4.83216510       0.28992217      17.81947079
Pd       6.53387787       8.77546396      16.28190898
Pd       4.59061383      12.10745365      16.09869709
Pd      11.23886009      12.49305977      15.94530731
Pd       1.75999877       4.40869099      16.34976759
Pd       4.33409279       3.86062572      17.38632406
Pd      12.15256908       3.05404239      16.73440482
Pd       3.77217333       9.55577571      16.00028276
Pd       6.40498134       5.21510954      16.40254553
Pd       7.13455502      12.30810742      16.49123892
Pd      10.08366110       5.16651378      16.52101101
Pd       6.97490216       1.74414658      16.63241395
Pd       1.23142193       1.19537840      15.99948443
Pd       4.11072247       6.85560228      15.94658940
O       10.21051585       3.07125956      17.12571291
O        9.78664150       9.55950596      16.72164180
O       13.16483085      12.36477099      15.53104043
O       12.48863096       1.12625465      17.21774799
O       11.36817687       0.37500704      17.30879562
O        5.86994389       7.04984018      16.99093800
O        4.18647253       1.42243341      14.88689617
O        2.20580688       1.48302240      17.72741821
O        9.24190361      13.12999300      15.98266286
O        2.00782324      10.82526578      15.89055107
O        2.82349615       0.25481629      18.05646620
O        3.22242120       5.43884847      17.16604739
O        6.91683551       3.41198655      15.60153329
O        8.35852747       5.95922232      16.01524408
O        5.34662507       2.29731886      17.81099532
O        0.28540876       3.07568378      16.06730529
O       11.94566128       5.03190576      17.04877021
O       13.43469994       8.49356426      15.99380588
O        6.81854492       0.07913585      17.68336962
O        7.12466244      10.56220074      15.53634102
