115
Lattice="13.75323 0.0 0.0 0.0 13.75323 0.0 0.0 0.0 23.89" Properties=species:S:1:pos:R:3 entry_id=6 rank=7 energy=-571.94189453125 parent_id=5 pbc="T T F"
Pd       0.00000000       0.00000000      10.00000000
Pd       2.75064538       0.00000000      10.00000000
Pd       5.50129076       0.00000000      10.00000000
Pd       8.25193614       0.00000000      10.00000000
Pd      11.00258152       0.00000000      10.00000000
Pd       0.00000000       2.75064538      10.00000000
Pd       2.75064538       2.75064538      10.00000000
Pd       5.50129076       2.75064538      10.00000000
Pd       8.25193614       2.75064538      10.00000000
Pd      11.00258152       2.75064538      10.00000000
Pd       0.00000000       5.50129076      10.00000000
Pd       2.75064538       5.50129076      10.00000000
Pd       5.50129076       5.50129076      10.00000000
Pd       8.25193614       5.50129076      10.00000000
Pd      11.00258152       5.50129076      10.00000000
Pd       0.00000000       8.25193614      10.00000000
Pd       2.75064538       8.25193614      10.00000000
Pd       5.50129076       8.25193614      10.00000000
Pd       8.25193614       8.25193614      10.00000000
Pd      11.00258152       8.25193614      10.00000000
Pd       0.00000000      11.00258152      10.00000000
Pd       2.75064538      11.00258152      10.00000000
Pd       5.50129076      11.00258152      10.00000000
Pd       8.25193614      11.00258152      10.00000000
Pd      11.00258152      11.00258152      10.00000000
Pd       1.37743530       1.41840745      12.00082252
Pd       4.10033996       1.42321114      11.98171572
Pd       6.83192351       1.39829171      11.95586980
Pd       9.57512057       1.39592898      11.89594876
Pd      12.38684272       1.37174114      11.92044161
Pd       1.36958181       4.13069692      12.00949100
Pd       4.08628682       4.14851722      12.00965578
Pd       6.83499512       4.13811155      11.97872545
Pd       9.56728621       4.13975942      11.94281254
Pd      12.36578195       4.13265160      11.93417299
Pd       1.37110082       6.89256210      11.94010419
Pd       4.13935064       6.87026939      11.96482277
Pd       6.87097415       6.85831372      11.95140951
Pd       9.64205429       6.82915781      11.94515418
Pd      12.39111484       6.85622887      11.94896407
Pd       1.38734251       9.67800546      12.01175922
Pd       4.11777592       9.66324146      11.95099537
Pd       6.89476706       9.64088005      11.95142944
Pd       9.64982872       9.59779534      11.89439304
Pd      12.42487279       9.60955999      11.94161946
Pd       1.40471207      12.38841783      12.00407747
Pd       4.09178293      12.40408397      11.99537188
Pd       6.86816975      12.39901143      11.97280504
Pd       9.63028672      12.36702810      11.91406436
Pd      12.41821973      12.33233070      11.93121108
Pd       0.09221521       0.01322596      13.92327401
Pd       2.80458763       0.05115161      14.03495857
Pd       5.52516938       0.02850230      13.94069110
Pd       8.19748699       0.02422040      13.85719832
Pd      11.13123939      13.70317295      13.81182407
Pd      13.58954823       2.75468055      14.03478821
Pd       2.60710925       2.94498923      14.18426178
Pd       5.44809964       2.72742283      13.98439107
Pd       8.23146347       2.73585825      13.95745394
Pd      10.90313097       2.66414958      13.93110789
Pd       0.03486997       5.50433946      13.97479155
Pd       2.76885068       5.63638126      14.00087416
Pd       5.56169566       5.57395018      14.06318142
Pd       8.29763235       5.49089648      13.99262334
Pd      11.04188878       5.35881318      13.96360640
Pd       0.01457555       8.25564272      13.98759144
Pd       2.76328856       8.39504514      13.95501198
Pd       5.55435845       8.31961105      13.90515117
Pd       8.29062301       8.27640313      13.97146559
Pd      11.00455158       8.09434048      14.06050489
Pd      13.69017375      10.98062498      14.06085846
Pd       2.62989631      11.10704994      14.18288657
Pd       5.44325691      11.01199385      13.92702105
Pd       8.19988143      11.02997538      14.05528330
Pd      10.94200370      10.85882116      13.89240081
Pd      12.55137493       6.49181576      16.28798127
Pd       9.49890205       9.30397006      16.32057727
Pd       2.54951720      13.08767581      17.58114818
Pd       1.51354369       7.03408133      15.97411666
Pd      12.37677926       9.39011445      16.15476501
Pd       9.44170400       1.19877094      16.14642743
Pd       4.57267141       1.48158245      16.26027684
Pd       6.69247051      10.12402954      16.24789776
Pd       4.60758104      12.44789076      16.04923955
Pd      12.16267893      12.28347963      16.03823702
Pd       0.88070708       4.27005141      16.37909469
Pd       3.87056346       4.53953220      16.32331698
Pd      11.33751770       3.08351813      16.70989150
Pd       3.98180076       9.78457164      16.24678231
Pd       6.83681924       7.04210093      16.18293061
Pd       7.03082393      13.58810582      16.34563248
Pd       9.82580566       6.44960858      16.47739673
Pd       7.43551389       3.41821832      16.47850642
Pd       0.60416232       1.04846913      17.12236986
Pd       4.18023520       7.14156664      15.89900099
O        9.28526243       2.85518197      17.18510354
O       10.87999834      10.74132687      15.97764338
O       13.56006614      13.58446371      15.85986349
O       11.87164879       1.35215980      17.67898481
O       11.07683541       0.32475101      17.29945671
O        5.57094366       8.53994578      16.81940204
O        2.74872163       1.43913764      15.53877538
O        1.69852573       1.77697198      18.58665287
O        9.69195720      13.33946187      15.12587292
O        2.77737630      11.45076597      16.34479878
O        2.66030126       0.85080907      18.83516134
O        2.27944813       5.41879996      17.07931321
O        8.04284563       5.33567653      16.04882328
O        8.55355437       7.79115124      17.11779835
O        5.65883224       4.01808357      15.59375770
O       13.27982575       2.88543475      16.07511527
O       11.16850542       5.04140738      16.02191857
O       13.65964324       8.02767104      16.78389006
O        6.42826700       1.63603594      16.92880364
O        7.70346060      11.76409569      15.96771733
