115
Lattice="13.75323 0.0 0.0 0.0 13.75323 0.0 0.0 0.0 23.89" Properties=species:S:1:pos:R:3 entry_id=7 rank=8 energy=-571.8926391601562 parent_id=6 pbc="T T F"
Pd       0.00000000       0.00000000      10.00000000
Pd       2.75064538       0.00000000      10.00000000
Pd       5.50129076       0.00000000      10.00000000
Pd       8.25193614       0.00000000      10.00000000
Pd      11.00258152       0.00000000      10.00000000
Pd       0.00000000       2.75064538      10.00000000
Pd       2.75064538       2.75064538      10.00000000
Pd       5.50129076       2.75064538      10.00000000
Pd       8.25193614       2.75064538      10.00000000
Pd      11.00258152       2.75064538      10.00000000
Pd       0.00000000       5.50129076      10.00000000
Pd       2.75064538       5.50129076      10.00000000
Pd       5.50129076       5.50129076      10.00000000
Pd       8.25193614       5.50129076      10.00000000
Pd      11.00258152       5.50129076      10.00000000
Pd       0.00000000       8.25193614      10.00000000
Pd       2.75064538       8.25193614      10.00000000
Pd       5.50129076       8.25193614      10.00000000
Pd       8.25193614       8.25193614      10.00000000
Pd      11.00258152       8.25193614      10.00000000
Pd       0.00000000      11.00258152      10.00000000
Pd       2.75064538      11.00258152      10.00000000
Pd       5.50129076      11.00258152      10.00000000
Pd       8.25193614      11.00258152      10.00000000
Pd      11.00258152      11.00258152      10.00000000
Pd       1.37619201       1.42080674      12.00987113
Pd       4.10058821       1.42072021      11.99003925
Pd       6.83370812       1.39144207      11.96193029
Pd       9.57512057       1.39592898      11.89594876
Pd      12.38684272       1.37174114      11.92044161
Pd       1.37327006       4.12883170      12.01370721
Pd       4.08895114       4.14454221      12.00540264
Pd       6.83923031       4.13431015      11.97714471
Pd       9.56728621       4.13975942      11.94281254
Pd      12.36578195       4.13265160      11.93417299
Pd       1.37110082       6.89256210      11.94010419
Pd       4.13935064       6.87026939      11.96482277
Pd       6.87097415       6.85831372      11.95140951
Pd       9.64205429       6.82915781      11.94515418
Pd      12.39111484       6.85622887      11.94896407
Pd       1.38559492       9.67905553      12.00058555
Pd       4.11777592       9.66324146      11.95099537
Pd       6.89476706       9.64088005      11.95142944
Pd       9.64982872       9.59779534      11.89439304
Pd      12.42487279       9.60955999      11.94161946
Pd       1.39682889      12.40790121      12.00244593
Pd       4.09395768      12.40908890      11.99645602
Pd       6.86816975      12.39901143      11.97280504
Pd       9.63028672      12.36702810      11.91406436
Pd      12.41640937      12.34016913      11.93544911
Pd       0.11273742       0.02392922      13.96647134
Pd       2.80491590       0.05106374      14.05564312
Pd       5.52538006       0.02050845      13.96328180
Pd       8.20557305       0.02223210      13.87384185
Pd      11.12659972      13.70584319      13.82144185
Pd      13.58047812       2.75458297      14.03610748
Pd       2.60252976       2.92644681      14.19827806
Pd       5.45456723       2.73048329      13.97941504
Pd       8.23287043       2.73121048      13.96449510
Pd      10.89848151       2.67034178      13.92630746
Pd       0.02806549       5.51177692      13.96116445
Pd       2.76740990       5.61668034      14.00202061
Pd       5.56353692       5.57791524      14.04722912
Pd       8.29649334       5.49118337      13.98834380
Pd      11.03304257       5.36910858      13.95403637
Pd       0.01958073       8.25880770      13.98726761
Pd       2.76460699       8.37473688      13.94420134
Pd       5.55783096       8.33185701      13.90391630
Pd       8.29606247       8.28036704      13.97475399
Pd      11.01168044       8.10024803      14.05933548
Pd      13.67636282      10.98384985      14.04152878
Pd       2.61777933      11.09475499      14.11822631
Pd       5.42217971      11.03201857      13.96001859
Pd       8.17888251      11.03612367      14.05426962
Pd      10.92015229      10.85820003      13.88397916
Pd      12.55968905       6.49720817      16.29406607
Pd       9.48808812       9.28803229      16.34330922
Pd       2.30255751      12.57077643      17.76576755
Pd       1.52372098       7.02336556      15.97127131
Pd      12.39522013       9.35097409      16.17109056
Pd       9.43558917       1.22926181      16.17902792
Pd       4.58522348       1.50235913      16.25822942
Pd       6.71017099      10.11400635      16.24841884
Pd       4.45560191      12.50860567      16.08024174
Pd      12.13419444      12.23400267      16.01322926
Pd       0.84487069       4.28535580      16.35081944
Pd       3.87677469       4.52541169      16.32301084
Pd      11.33953563       3.11874072      16.70030261
Pd       4.01979901       9.76021774      16.23434254
Pd       6.83660912       7.03749117      16.17743211
Pd       6.98909406      13.59005297      16.35287608
Pd       9.82045061       6.47171348      16.48747904
Pd       7.44239844       3.43203883      16.48330581
Pd       0.20697513       0.38124440      17.64970824
Pd       4.18513930       7.12187571      15.88812837
O        9.29193967       2.89080696      17.20318659
O       10.89059836      10.68002271      15.96532677
O       13.38409295      13.67502716      15.88037844
O       11.86870960       1.36597184      17.73687818
O       10.97099597       0.38533777      17.40905778
O        5.58696483       8.53370920      16.82291466
O        2.77982863       1.42709872      15.54802158
O        1.01307069       0.61126194      19.41583403
O        9.69905712      13.36808367      15.16122463
O        2.71286048      11.30029418      16.25731314
O        2.13989342      13.60330387      19.42204513
O        2.27491599       5.38467393      17.08019483
O        8.04972684       5.34368339      16.04224525
O        8.52988771       7.78970978      17.14846572
O        5.67014389       4.03250336      15.58348997
O       13.22037515       2.97686486      16.00717231
O       11.15911793       5.07329352      16.00927677
O       13.68783254       8.01005115      16.81776939
O        6.42639606       1.65219293      16.94707345
O        7.67842922      11.77652584      15.96276317
