115
Lattice="13.75323 0.0 0.0 0.0 13.75323 0.0 0.0 0.0 23.89" Properties=species:S:1:pos:R:3 entry_id=3 rank=6 energy=-571.9635620117188 parent_id=1 pbc="T T F"
Pd       0.00000000       0.00000000      10.00000000
Pd       2.75064538       0.00000000      10.00000000
Pd       5.50129076       0.00000000      10.00000000
Pd       8.25193614       0.00000000      10.00000000
Pd      11.00258152       0.00000000      10.00000000
Pd       0.00000000       2.75064538      10.00000000
Pd       2.75064538       2.75064538      10.00000000
Pd       5.50129076       2.75064538      10.00000000
Pd       8.25193614       2.75064538      10.00000000
Pd      11.00258152       2.75064538      10.00000000
Pd       0.00000000       5.50129076      10.00000000
Pd       2.75064538       5.50129076      10.00000000
Pd       5.50129076       5.50129076      10.00000000
Pd       8.25193614       5.50129076      10.00000000
Pd      11.00258152       5.50129076      10.00000000
Pd       0.00000000       8.25193614      10.00000000
Pd       2.75064538       8.25193614      10.00000000
Pd       5.50129076       8.25193614      10.00000000
Pd       8.25193614       8.25193614      10.00000000
Pd      11.00258152       8.25193614      10.00000000
Pd       0.00000000      11.00258152      10.00000000
Pd       2.75064538      11.00258152      10.00000000
Pd       5.50129076      11.00258152      10.00000000
Pd       8.25193614      11.00258152      10.00000000
Pd      11.00258152      11.00258152      10.00000000
Pd       1.38733467       1.42839219      12.01369461
Pd       4.09788374       1.42092562      12.00366933
Pd       6.82731296       1.39235223      11.97061514
Pd       9.57512057       1.39592898      11.89594876
Pd      12.38684272       1.37174114      11.92044161
Pd       1.37153496       4.13845878      12.00525667
Pd       4.09631616       4.15436749      11.99598151
Pd       6.84553935       4.13869379      11.97824880
Pd       9.56728621       4.13975942      11.94281254
Pd      12.36578195       4.13265160      11.93417299
Pd       1.37110082       6.89256210      11.94010419
Pd       4.13935064       6.87026939      11.96482277
Pd       6.87097415       6.85831372      11.95140951
Pd       9.64205429       6.82915781      11.94515418
Pd      12.39111484       6.85622887      11.94896407
Pd       1.36693427       9.67412870      11.99418905
Pd       4.11777592       9.66324146      11.95099537
Pd       6.89476706       9.64088005      11.95142944
Pd       9.64982872       9.59779534      11.89439304
Pd      12.42487279       9.60955999      11.94161946
Pd       1.38731764      12.42615222      11.99765418
Pd       4.09732960      12.42568931      11.97914698
Pd       6.86816975      12.39901143      11.97280504
Pd       9.63028672      12.36702810      11.91406436
Pd      12.42703528      12.31538042      11.96578860
Pd       0.06789984       0.04391571      13.92710074
Pd       2.79198996       0.03597738      14.13333527
Pd       5.50398362       0.02803191      13.98280570
Pd       8.15208496      13.73523849      13.88729348
Pd      11.07271121      13.72662677      13.79707450
Pd      13.62825461       2.78817482      14.05149401
Pd       2.68165813       2.98404251      14.11905226
Pd       5.51040110       2.78651606      13.96607036
Pd       8.25341357       2.69114662      13.97791079
Pd      10.93018754       2.67869014      13.92751697
Pd       0.04586492       5.50701113      13.97138538
Pd       2.74548260       5.66244428      14.03253280
Pd       5.46563271       5.56563422      14.03581158
Pd       8.24017311       5.40120202      14.03337250
Pd      11.01368937       5.36377669      13.95878819
Pd       0.01654536       8.28294216      13.97521192
Pd       2.75965235       8.36712787      13.96412331
Pd       5.54754338       8.33677354      13.92532159
Pd       8.30134716       8.24053040      13.90550867
Pd      10.98635933       8.11727622      14.05158913
Pd      13.74862725      11.05460287      14.20938522
Pd       2.75507626      11.11324911      13.99497314
Pd       5.49591310      11.01591184      13.86861409
Pd       8.21080228      10.96645216      14.06839480
Pd      10.98336765      10.89210984      13.90120062
Pd      12.48153200       6.57032476      16.10221220
Pd       9.45205086       9.34546968      16.26728417
Pd       2.20611134      12.69540324      16.85466888
Pd       1.54634372       7.03816638      16.25313177
Pd      12.25302930       9.56904218      16.08558512
Pd       9.43852426       1.12875088      16.13526302
Pd       4.71583204       1.33439213      16.39544371
Pd       6.16666998       9.98631694      16.34433950
Pd       4.60514236      12.22629560      16.01563505
Pd      12.04212558      12.43827814      16.09001748
Pd       1.00122637       4.30217601      16.37109145
Pd       3.98710035       4.53800462      16.30492772
Pd      11.35966756       3.07791673      16.71881257
Pd       3.08768441       9.87433697      16.37104999
Pd       6.88580465       7.01638336      15.88180298
Pd       7.08283771      13.24363117      16.41947233
Pd       9.72108690       6.42037032      16.38630129
Pd       7.47999708       3.15901968      16.59263723
Pd       0.74833691       1.11213845      16.90736362
Pd       4.23823959       7.20241138      15.95871584
O        9.36473702       2.75914885      17.22213241
O       10.77209937      10.86629702      16.04479694
O       13.22709777       0.17292013      15.80164275
O       11.77921019       1.37392806      17.74701686
O       10.99401829       0.33656176      17.37457933
O        4.65425879       8.88555658      17.00028390
O        2.97329085       1.54255647      15.46815980
O        2.24773524       1.39982990      18.15882607
O        9.64344115      13.24242381      15.12818295
O        1.58147388      11.09673043      15.83561598
O        3.16975474       0.39357845      17.88424914
O        2.43917724       5.46167312      17.06959607
O        8.00095146       5.09026397      16.09769539
O        8.45087130       7.80386560      16.94761048
O        5.55234970       3.37974191      15.93718107
O       13.34347676       2.93989334      16.12175779
O       11.14356699       5.05487845      16.03895852
O       13.65755780       8.18507281      16.10482210
O        6.56563851       1.27527904      17.11824176
O        7.57787785      11.34640382      16.01885753
