115
Lattice="13.75323 0.0 0.0 0.0 13.75323 0.0 0.0 0.0 23.89" Properties=species:S:1:pos:R:3 entry_id=1 rank=9 energy=-570.318359375 parent_id=0 pbc="T T F"
Pd       0.00000000       0.00000000      10.00000000
Pd       2.75064538       0.00000000      10.00000000
Pd       5.50129076       0.00000000      10.00000000
Pd       8.25193614       0.00000000      10.00000000
Pd      11.00258152       0.00000000      10.00000000
Pd       0.00000000       2.75064538      10.00000000
Pd       2.75064538       2.75064538      10.00000000
Pd       5.50129076       2.75064538      10.00000000
Pd       8.25193614       2.75064538      10.00000000
Pd      11.00258152       2.75064538      10.00000000
Pd       0.00000000       5.50129076      10.00000000
Pd       2.75064538       5.50129076      10.00000000
Pd       5.50129076       5.50129076      10.00000000
Pd       8.25193614       5.50129076      10.00000000
Pd      11.00258152       5.50129076      10.00000000
Pd       0.00000000       8.25193614      10.00000000
Pd       2.75064538       8.25193614      10.00000000
Pd       5.50129076       8.25193614      10.00000000
Pd       8.25193614       8.25193614      10.00000000
Pd      11.00258152       8.25193614      10.00000000
Pd       0.00000000      11.00258152      10.00000000
Pd       2.75064538      11.00258152      10.00000000
Pd       5.50129076      11.00258152      10.00000000
Pd       8.25193614      11.00258152      10.00000000
Pd      11.00258152      11.00258152      10.00000000
Pd       1.34184744       1.40334941      12.07559361
Pd       4.06915609       1.40533013      11.97574471
Pd       6.84581257       1.36215233      11.97663877
Pd       9.57512057       1.39592898      11.89594876
Pd      12.38684272       1.37174114      11.92044161
Pd       1.37700936       4.12168734      12.01711119
Pd       4.07870316       4.14621104      12.00914416
Pd       6.82089763       4.10207465      12.00069597
Pd       9.56728621       4.13975942      11.94281254
Pd      12.36578195       4.13265160      11.93417299
Pd       1.37110082       6.89256210      11.94010419
Pd       4.13935064       6.87026939      11.96482277
Pd       6.87097415       6.85831372      11.95140951
Pd       9.64205429       6.82915781      11.94515418
Pd      12.39111484       6.85622887      11.94896407
Pd       1.36165843       9.70001865      11.99853178
Pd       4.11777592       9.66324146      11.95099537
Pd       6.89476706       9.64088005      11.95142944
Pd       9.64982872       9.59779534      11.89439304
Pd      12.42487279       9.60955999      11.94161946
Pd       1.36932081      12.44300705      12.02537331
Pd       4.09510303      12.40199949      11.97630284
Pd       6.86816975      12.39901143      11.97280504
Pd       9.63028672      12.36702810      11.91406436
Pd      12.41821085      12.33097827      11.98456725
Pd      13.67483220      13.74958594      14.06511795
Pd       2.74804284       0.13959996      14.17884735
Pd       5.49020710      13.74492807      13.92062340
Pd       8.26650389      13.68062819      13.99129700
Pd      10.97687790       0.08580968      13.75998698
Pd      13.53746947       2.77559219      13.97110053
Pd       2.55284437       2.94505681      14.22240053
Pd       5.43701642       2.68395628      13.98332914
Pd       8.20336466       2.65011838      13.98627068
Pd      10.85577386       2.71364000      13.92014428
Pd       0.06926400       5.50725748      13.97039991
Pd       2.75774493       5.64695693      14.06703526
Pd       5.52399054       5.57674599      14.05136240
Pd       8.23689877       5.41090215      13.98174241
Pd      11.04563092       5.38629919      13.94167637
Pd       0.05696538       8.28130407      13.94087391
Pd       2.77931342       8.33377908      13.92393728
Pd       5.56778611       8.30628121      13.94848158
Pd       8.28553667       8.21520433      13.94791130
Pd      11.05429126       8.20315901      13.99459838
Pd      13.65804561      10.95508947      14.35665603
Pd       2.75637131      11.14945186      13.97322682
Pd       5.53919658      10.99964915      13.93970437
Pd       8.26146926      10.97278632      13.94848326
Pd      10.98580076      10.91286080      13.88578234
Pd      12.49004501       6.61967334      16.07911365
Pd       9.48948729       9.56380598      15.93993904
Pd       1.95317377      12.78872940      16.63811929
Pd       1.53994117       6.96691167      16.38122660
Pd      12.23573248       9.47992715      16.32678136
Pd       9.17457819       1.12686899      16.30415573
Pd       4.48725724       1.28616354      17.17208085
Pd       5.90090869       9.88707536      16.57368310
Pd       4.40538735      12.26239747      16.05291580
Pd      11.09610234      12.55761117      15.95204063
Pd       0.88512134       4.30993615      16.41767575
Pd       3.89799250       4.57290630      16.38049717
Pd      11.19066694       3.18431658      16.62000489
Pd       3.20159162       9.71705823      16.22046536
Pd       7.20149099       7.30803243      16.45231003
Pd       6.70536118      13.67948358      16.41627452
Pd       9.71483934       6.78397183      15.93936855
Pd       7.37667635       3.52452514      16.46536964
Pd       0.76157272       1.45252013      16.12004928
Pd       4.20537768       7.20871263      15.95559604
O        9.21550510       2.92256125      17.12864402
O       10.86594226      10.72247440      16.91529704
O       13.05603298      12.51111961      15.61003169
O       11.77850904       1.44063737      17.48600810
O       10.85142392       0.47924326      17.48024222
O        5.43252023       8.09158097      17.26653119
O        3.91038163       1.66511195      15.16111387
O        1.72199475       1.54805260      17.87925506
O        9.10415553      12.94035837      15.80318634
O        1.63006704      11.01636998      15.75867271
O        2.69160656       0.53145882      17.78876921
O        2.33008084       5.34436313      17.23911658
O        7.99620612       5.44345847      16.03968687
O        7.80096772       9.16948965      16.96383572
O        5.62396753       4.05221969      15.55982079
O       13.14594677       3.09400775      15.99933742
O       11.10096212       5.18031594      16.04794900
O       13.73130148       8.19486105      16.02167883
O        6.41901323       1.76886937      17.08302595
O        6.43721138      11.70638377      15.89247866
