115
Lattice="13.75323 0.0 0.0 0.0 13.75323 0.0 0.0 0.0 23.89" Properties=species:S:1:pos:R:3 entry_id=10 rank=0 energy=-572.1031494140625 parent_id=9 pbc="T T F"
Pd       0.00000000       0.00000000      10.00000000
Pd       2.75064538       0.00000000      10.00000000
Pd       5.50129076       0.00000000      10.00000000
Pd       8.25193614       0.00000000      10.00000000
Pd      11.00258152       0.00000000      10.00000000
Pd       0.00000000       2.75064538      10.00000000
Pd       2.75064538       2.75064538      10.00000000
Pd       5.50129076       2.75064538      10.00000000
Pd       8.25193614       2.75064538      10.00000000
Pd      11.00258152       2.75064538      10.00000000
Pd       0.00000000       5.50129076      10.00000000
Pd       2.75064538       5.50129076      10.00000000
Pd       5.50129076       5.50129076      10.00000000
Pd       8.25193614       5.50129076      10.00000000
Pd      11.00258152       5.50129076      10.00000000
Pd       0.00000000       8.25193614      10.00000000
Pd       2.75064538       8.25193614      10.00000000
Pd       5.50129076       8.25193614      10.00000000
Pd       8.25193614       8.25193614      10.00000000
Pd      11.00258152       8.25193614      10.00000000
Pd       0.00000000      11.00258152      10.00000000
Pd       2.75064538      11.00258152      10.00000000
Pd       5.50129076      11.00258152      10.00000000
Pd       8.25193614      11.00258152      10.00000000
Pd      11.00258152      11.00258152      10.00000000
Pd       1.37468169       1.41511583      12.02095763
Pd       4.09141528       1.41387974      12.00586262
Pd       6.82296823       1.39651529      11.96991052
Pd       9.57512057       1.39592898      11.89594876
Pd      12.38684272       1.37174114      11.92044161
Pd       1.36487476       4.13404702      12.00002060
Pd       4.09410513       4.14255446      12.00791508
Pd       6.83385672       4.13040896      11.98904267
Pd       9.56728621       4.13975942      11.94281254
Pd      12.36578195       4.13265160      11.93417299
Pd       1.37110082       6.89256210      11.94010419
Pd       4.13935064       6.87026939      11.96482277
Pd       6.87097415       6.85831372      11.95140951
Pd       9.64205429       6.82915781      11.94515418
Pd      12.39111484       6.85622887      11.94896407
Pd       1.37989818       9.67767345      11.99166092
Pd       4.11777592       9.66324146      11.95099537
Pd       6.89476706       9.64088005      11.95142944
Pd       9.64982872       9.59779534      11.89439304
Pd      12.42487279       9.60955999      11.94161946
Pd       1.39477577      12.40862694      12.01649720
Pd       4.08123460      12.40692146      12.00370874
Pd       6.86816975      12.39901143      11.97280504
Pd       9.63028672      12.36702810      11.91406436
Pd      12.42243245      12.33427520      11.93911538
Pd       0.08762921       0.00623187      13.96784250
Pd       2.80651091       0.01108935      14.11473542
Pd       5.51984950       0.01892751      13.95879903
Pd       8.20563567       0.02409735      13.86400507
Pd      11.12325895      13.71451341      13.80251125
Pd      13.58551699       2.76010410      14.05286866
Pd       2.61287868       2.97068415      14.13281815
Pd       5.44024557       2.70339784      14.03278782
Pd       8.22101459       2.74053026      13.97043363
Pd      10.89996629       2.68135451      13.92924004
Pd       0.02966104       5.50067128      13.97929490
Pd       2.76224085       5.64715169      13.99726139
Pd       5.55371485       5.57097585      14.05510571
Pd       8.28660393       5.49963790      13.99375563
Pd      11.03246808       5.37833078      13.94494726
Pd       0.00927795       8.25120797      13.98352557
Pd       2.75485693       8.38964688      13.93825732
Pd       5.55360819       8.31480849      13.89699251
Pd       8.29294336       8.28604434      13.97307028
Pd      11.00871712       8.11221964      14.05949360
Pd      13.70475506      10.97963997      14.06902996
Pd       2.65614440      11.09959477      14.14374602
Pd       5.45377720      10.99321548      13.89234110
Pd       8.21002088      11.03946894      14.06573799
Pd      10.95089255      10.87107859      13.88552892
Pd      12.53885851       6.50046680      16.29925554
Pd       9.50902297       9.34447642      16.31308825
Pd       2.55057612      12.71033683      17.07867740
Pd       1.50302359       7.03973636      15.96571276
Pd      12.41302013       9.36180485      16.17980389
Pd       9.42638584       1.29597486      16.13965853
Pd       4.56490354       1.48968320      16.32245127
Pd       6.68025882      10.18751550      16.25985622
Pd       4.86179630      12.30876290      16.08900445
Pd      12.14255215      12.30620901      16.02421393
Pd       0.85567221       4.28009824      16.40305968
Pd       3.84311403       4.56624782      16.33441745
Pd      11.31112908       3.16891188      16.72957707
Pd       3.86559411       9.78620064      16.29382679
Pd       6.80061293       7.13388406      16.18852918
Pd       7.10160320      13.65141499      16.38890088
Pd       9.79283684       6.51325637      16.45790646
Pd       7.40398552       3.48014484      16.48829403
Pd       0.80007875       0.95905046      17.01223913
Pd       4.17113057       7.14697612      15.87972855
O        9.24786103       2.94469894      17.19175630
O       10.94365344      10.71912715      15.96812962
O       13.29821730       0.07261377      15.87274253
O       11.72028549       1.49389376      17.78612447
O       10.92662082       0.48514168      17.42070860
O        5.51207030       8.64435444      16.81806820
O        2.78102526       1.50515484      15.48396846
O        2.24425173       1.47709507      18.23518141
O        9.71318644      13.41367270      15.15538529
O        2.26668335      10.98337488      16.18307097
O        3.30628530       0.60467652      17.98512793
O        2.25270230       5.43424983      17.10001779
O        7.99639374       5.40503275      16.04718681
O        8.52836221       7.85715896      17.11674443
O        5.62952228       4.04567925      15.59768661
O       13.25034416       2.91956038      16.08571916
O       11.12897852       5.09561548      15.99906469
O       13.67227265       7.99952769      16.84294511
O        6.43579838       1.67465315      16.97949522
O        7.74777859      11.80545103      15.98901968
