115
Lattice="13.75323 0.0 0.0 0.0 13.75323 0.0 0.0 0.0 23.89" Properties=species:S:1:pos:R:3 entry_id=11 rank=1 energy=-572.0999755859375 parent_id=10 pbc="T T F"
Pd       0.00000000       0.00000000      10.00000000
Pd       2.75064538       0.00000000      10.00000000
Pd       5.50129076       0.00000000      10.00000000
Pd       8.25193614       0.00000000      10.00000000
Pd      11.00258152       0.00000000      10.00000000
Pd       0.00000000       2.75064538      10.00000000
Pd       2.75064538       2.75064538      10.00000000
Pd       5.50129076       2.75064538      10.00000000
Pd       8.25193614       2.75064538      10.00000000
Pd      11.00258152       2.75064538      10.00000000
Pd       0.00000000       5.50129076      10.00000000
Pd       2.75064538       5.50129076      10.00000000
Pd       5.50129076       5.50129076      10.00000000
Pd       8.25193614       5.50129076      10.00000000
Pd      11.00258152       5.50129076      10.00000000
Pd       0.00000000       8.25193614      10.00000000
Pd       2.75064538       8.25193614      10.00000000
Pd       5.50129076       8.25193614      10.00000000
Pd       8.25193614       8.25193614      10.00000000
Pd      11.00258152       8.25193614      10.00000000
Pd       0.00000000      11.00258152      10.00000000
Pd       2.75064538      11.00258152      10.00000000
Pd       5.50129076      11.00258152      10.00000000
Pd       8.25193614      11.00258152      10.00000000
Pd      11.00258152      11.00258152      10.00000000
Pd       1.37541179       1.41208421      12.01957988
Pd       4.09297574       1.40983356      12.00446208
Pd       6.82457929       1.39281271      11.96677361
Pd       9.57512057       1.39592898      11.89594876
Pd      12.38684272       1.37174114      11.92044161
Pd       1.36429043       4.13163448      11.99898571
Pd       4.09440830       4.14077294      12.00663877
Pd       6.83511525       4.12823820      11.98850701
Pd       9.56728621       4.13975942      11.94281254
Pd      12.36578195       4.13265160      11.93417299
Pd       1.37110082       6.89256210      11.94010419
Pd       4.13935064       6.87026939      11.96482277
Pd       6.87097415       6.85831372      11.95140951
Pd       9.64205429       6.82915781      11.94515418
Pd      12.39111484       6.85622887      11.94896407
Pd       1.37922604       9.67483738      11.99156490
Pd       4.11777592       9.66324146      11.95099537
Pd       6.89476706       9.64088005      11.95142944
Pd       9.64982872       9.59779534      11.89439304
Pd      12.42487279       9.60955999      11.94161946
Pd       1.39717329      12.40428902      12.01403297
Pd       4.08456458      12.40207855      12.00309324
Pd       6.86816975      12.39901143      11.97280504
Pd       9.63028672      12.36702810      11.91406436
Pd      12.42333696      12.33033861      11.93819494
Pd       0.08604393       0.00121915      13.96220491
Pd       2.80435636       0.00430095      14.10797247
Pd       5.52067078       0.00852708      13.95521577
Pd       8.20478690       0.01261454      13.86227906
Pd      11.12257546      13.71379648      13.79925930
Pd      13.58269270       2.75570299      14.05170148
Pd       2.60939451       2.96993994      14.13343880
Pd       5.43888344       2.69438305      14.02630490
Pd       8.22088912       2.72826074      13.96776830
Pd      10.89938228       2.67943714      13.92789994
Pd       0.03309162       5.49662275      13.97583577
Pd       2.76755297       5.64368950      13.99269894
Pd       5.55765303       5.56098335      14.05749133
Pd       8.28838289       5.48936455      13.99834986
Pd      11.03386330       5.37630968      13.94923268
Pd       0.00586852       8.24730272      13.98166706
Pd       2.75375121       8.38429173      13.93958960
Pd       5.55176540       8.30260307      13.89968874
Pd       8.28763729       8.27400777      13.97513739
Pd      11.00137182       8.10842453      14.06108363
Pd      13.71165991      10.97571792      14.07406842
Pd       2.66576039      11.09162643      14.13750755
Pd       5.46007636      10.98024879      13.88859249
Pd       8.21389224      11.02533785      14.06831682
Pd      10.95585771      10.86531549      13.88498010
Pd      12.53683863       6.48366492      16.29298653
Pd       9.50675433       9.31997978      16.32099013
Pd       2.53224531      12.70186870      17.06517460
Pd       1.50261776       7.02557158      15.96197563
Pd      12.40651203       9.35214845      16.17608351
Pd       9.42469180       1.25800770      16.13128505
Pd       4.55645808       1.47607328      16.31266131
Pd       6.66153539      10.15536170      16.25255617
Pd       4.84087571      12.28985309      16.07196398
Pd      12.12992776      12.29094502      16.02717244
Pd       0.85562788       4.26361010      16.39745298
Pd       3.84985492       4.55280464      16.32735093
Pd      11.30954898       3.13556190      16.72594992
Pd       3.84052153       9.77339621      16.30146325
Pd       6.79921588       7.12232874      16.19244147
Pd       7.09107357      13.62180141      16.37961368
Pd       9.79232808       6.48689117      16.46661785
Pd       7.40808169       3.45628439      16.48503162
Pd       0.78439079       0.95082999      16.99984441
Pd       4.17017466       7.13635542      15.88095962
O        9.24987191       2.90730331      17.18302493
O       10.92972192      10.70249923      15.96942761
O       13.28494814       0.05421750      15.86333028
O       11.71873387       1.45447894      17.77811621
O       10.92180467       0.44531052      17.41527482
O        5.48597833       8.62350074      16.82495399
O        2.77220713       1.49837351      15.47577680
O        2.22987316       1.46564300      18.22282086
O        9.71235031      13.37454829      15.14652175
O        2.24329842      10.97372900      16.17354444
O        3.29038532       0.59396670      17.97124903
O        2.25591209       5.41804787      17.08890955
O        7.99727595       5.38772384      16.05325458
O        8.52865438       7.83161322      17.12474537
O        5.63715595       4.02771155      15.59697195
O       13.25284739       2.89637164      16.09013066
O       11.13013445       5.07055670      16.00373171
O       13.66741130       7.98696744      16.82840965
O        6.43016980       1.64823512      16.96476300
O        7.73346590      11.77322406      15.98750933
