115
Lattice="13.75323 0.0 0.0 0.0 13.75323 0.0 0.0 0.0 23.89" Properties=species:S:1:pos:R:3 entry_id=0 rank=12 energy=-568.3948974609375 parent_id=-1 pbc="T T F"
Pd       0.00000000       0.00000000      10.00000000
Pd       2.75064538       0.00000000      10.00000000
Pd       5.50129076       0.00000000      10.00000000
Pd       8.25193614       0.00000000      10.00000000
Pd      11.00258152       0.00000000      10.00000000
Pd       0.00000000       2.75064538      10.00000000
Pd       2.75064538       2.75064538      10.00000000
Pd       5.50129076       2.75064538      10.00000000
Pd       8.25193614       2.75064538      10.00000000
Pd      11.00258152       2.75064538      10.00000000
Pd       0.00000000       5.50129076      10.00000000
Pd       2.75064538       5.50129076      10.00000000
Pd       5.50129076       5.50129076      10.00000000
Pd       8.25193614       5.50129076      10.00000000
Pd      11.00258152       5.50129076      10.00000000
Pd       0.00000000       8.25193614      10.00000000
Pd       2.75064538       8.25193614      10.00000000
Pd       5.50129076       8.25193614      10.00000000
Pd       8.25193614       8.25193614      10.00000000
Pd      11.00258152       8.25193614      10.00000000
Pd       0.00000000      11.00258152      10.00000000
Pd       2.75064538      11.00258152      10.00000000
Pd       5.50129076      11.00258152      10.00000000
Pd       8.25193614      11.00258152      10.00000000
Pd      11.00258152      11.00258152      10.00000000
Pd       1.34624540       1.38086034      12.08141651
Pd       4.09710847       1.39052327      12.02480132
Pd       6.82981719       1.36954805      12.02878318
Pd       9.57512057       1.39592898      11.89594876
Pd      12.38684272       1.37174114      11.92044161
Pd       1.36477391       4.11654299      11.98603615
Pd       4.10062186       4.12335984      12.03937284
Pd       6.80965130       4.10127269      12.01947213
Pd       9.56728621       4.13975942      11.94281254
Pd      12.36578195       4.13265160      11.93417299
Pd       1.37110082       6.89256210      11.94010419
Pd       4.13935064       6.87026939      11.96482277
Pd       6.87097415       6.85831372      11.95140951
Pd       9.64205429       6.82915781      11.94515418
Pd      12.39111484       6.85622887      11.94896407
Pd       1.35619952       9.70032754      11.99805685
Pd       4.11777592       9.66324146      11.95099537
Pd       6.89476706       9.64088005      11.95142944
Pd       9.64982872       9.59779534      11.89439304
Pd      12.42487279       9.60955999      11.94161946
Pd       1.38044092      12.43192974      12.05377543
Pd       4.10022422      12.39284914      12.00409264
Pd       6.86816975      12.39901143      11.97280504
Pd       9.63028672      12.36702810      11.91406436
Pd      12.44377583      12.34106098      11.97882778
Pd      13.68381628      13.72507847      14.13497475
Pd       2.74102130       0.13690382      14.18798091
Pd       5.57274720      13.58411145      14.03501974
Pd       8.32208452       0.10874276      14.02897691
Pd      11.00943767       0.06541647      13.76259935
Pd      13.56160510       2.74994909      13.99055391
Pd       2.60935303       2.89248378      14.11902922
Pd       5.38703698       2.66351623      14.17474733
Pd       8.19635153       2.74740292      13.98469057
Pd      10.87232150       2.71373507      13.87796254
Pd       0.02066091       5.52365450      13.94648758
Pd       2.72280322       5.58687017      14.00784057
Pd       5.45643869       5.48202780      14.06965667
Pd       8.27767630       5.48391663      14.03245291
Pd      11.00185060       5.39661160      13.97229445
Pd       0.04971224       8.32458161      13.97807886
Pd       2.75359765       8.29351365      13.88784005
Pd       5.49569588       8.26292738      13.94878850
Pd       8.40019303       8.22065779      13.82457431
Pd      11.08214453       8.19515868      13.93713300
Pd      13.58923999      10.96819884      14.50068698
Pd       2.74687593      11.08184091      14.01332523
Pd       5.55691655      10.90584249      13.95547261
Pd       8.34039560      11.01502987      13.92443000
Pd      11.03614206      10.88291333      13.82900049
Pd      12.43757047       6.59285997      16.10454442
Pd       8.74021824       9.62199621      16.23412570
Pd       2.03066030      12.72897842      16.64120070
Pd       1.41923952       7.01586726      16.25548880
Pd      11.87895298       9.39103617      16.30171962
Pd       8.32077733       1.37680448      16.95461227
Pd       4.98989562       0.37834328      17.18449661
Pd       5.65050614       9.65136200      17.05435989
Pd       4.39383861      11.78169632      16.13855740
Pd      10.86718254      12.42525101      15.91205185
Pd       0.84944674       4.28628855      16.30386030
Pd       3.88141906       4.40498504      16.31829739
Pd      11.15784265       3.15620297      16.54906205
Pd       2.99011481       9.51112324      16.27593499
Pd       7.25969162       7.14728402      16.87911293
Pd       6.97183094      11.97810782      16.16845645
Pd       9.73205326       6.98602935      15.97462081
Pd       7.44862278       3.72302913      16.42947693
Pd       1.07457539       1.49116555      16.04520244
Pd       4.09053835       7.08731860      15.90612880
O        9.23783356       3.11401230      17.10111815
O       10.39577509      10.53338096      16.84740580
O       12.86567566      12.54158010      15.65831546
O       11.40036440       1.29083853      17.22753154
O       10.36251847       0.44714231      17.13444104
O        5.25438843       7.65417633      17.37631584
O        4.40728167       1.01620132      15.22007811
O        2.39080139       1.64077420      17.53607009
O        8.88601342      12.46474661      15.43788979
O        1.53670733      10.98902836      15.78942649
O        3.00991261       0.38459412      17.70402788
O        2.31055470       5.38257871      17.01125855
O        6.98073220       5.58702582      15.66940334
O        7.53891250       8.89925370      17.78027499
O        5.52328231       3.35577431      16.08824563
O       13.14556059       2.98276057      16.01059597
O       11.03824874       5.17653210      16.05771493
O       13.54549249       8.25303924      16.06253076
O        6.93515512       0.02464563      17.15671201
O        7.07532512       8.65269937      15.26882102
