115
Lattice="13.75323 0.0 0.0 0.0 13.75323 0.0 0.0 0.0 23.89" Properties=species:S:1:pos:R:3 entry_id=5 rank=4 energy=-572.00634765625 parent_id=4 pbc="T T F"
Pd       0.00000000       0.00000000      10.00000000
Pd       2.75064538       0.00000000      10.00000000
Pd       5.50129076       0.00000000      10.00000000
Pd       8.25193614       0.00000000      10.00000000
Pd      11.00258152       0.00000000      10.00000000
Pd       0.00000000       2.75064538      10.00000000
Pd       2.75064538       2.75064538      10.00000000
Pd       5.50129076       2.75064538      10.00000000
Pd       8.25193614       2.75064538      10.00000000
Pd      11.00258152       2.75064538      10.00000000
Pd       0.00000000       5.50129076      10.00000000
Pd       2.75064538       5.50129076      10.00000000
Pd       5.50129076       5.50129076      10.00000000
Pd       8.25193614       5.50129076      10.00000000
Pd      11.00258152       5.50129076      10.00000000
Pd       0.00000000       8.25193614      10.00000000
Pd       2.75064538       8.25193614      10.00000000
Pd       5.50129076       8.25193614      10.00000000
Pd       8.25193614       8.25193614      10.00000000
Pd      11.00258152       8.25193614      10.00000000
Pd       0.00000000      11.00258152      10.00000000
Pd       2.75064538      11.00258152      10.00000000
Pd       5.50129076      11.00258152      10.00000000
Pd       8.25193614      11.00258152      10.00000000
Pd      11.00258152      11.00258152      10.00000000
Pd       1.37189601       1.40591644      12.03579381
Pd       4.09733954       1.40561860      12.00866984
Pd       6.83064686       1.39682161      11.96746921
Pd       9.57512057       1.39592898      11.89594876
Pd      12.38684272       1.37174114      11.92044161
Pd       1.36192574       4.13055962      11.99401659
Pd       4.09784023       4.14236473      11.99850632
Pd       6.83775148       4.13229262      11.98538398
Pd       9.56728621       4.13975942      11.94281254
Pd      12.36578195       4.13265160      11.93417299
Pd       1.37110082       6.89256210      11.94010419
Pd       4.13935064       6.87026939      11.96482277
Pd       6.87097415       6.85831372      11.95140951
Pd       9.64205429       6.82915781      11.94515418
Pd      12.39111484       6.85622887      11.94896407
Pd       1.38012706       9.67191129      11.98117071
Pd       4.11777592       9.66324146      11.95099537
Pd       6.89476706       9.64088005      11.95142944
Pd       9.64982872       9.59779534      11.89439304
Pd      12.42487279       9.60955999      11.94161946
Pd       1.38890158      12.41098710      12.02093093
Pd       4.09021429      12.40658776      12.00296428
Pd       6.86816975      12.39901143      11.97280504
Pd       9.63028672      12.36702810      11.91406436
Pd      12.41508620      12.33772806      11.95092489
Pd       0.06128119      13.73868083      13.99887551
Pd       2.81664076      13.74087014      14.11218521
Pd       5.57048752       0.01252157      13.97110015
Pd       8.29651144       0.06073160      13.89542711
Pd      11.04118229      13.74384603      13.80257520
Pd      13.59684482       2.74676005      14.06999573
Pd       2.62886963       2.98226559      14.10291725
Pd       5.46034451       2.70950811      14.01324884
Pd       8.24060399       2.73162180      13.96796936
Pd      10.90757718       2.68505339      13.94371552
Pd       0.02989641       5.48762522      13.97893686
Pd       2.76305685       5.64757034      13.98933254
Pd       5.54780830       5.57242326      14.05497968
Pd       8.28233566       5.50323293      13.98748554
Pd      11.02973247       5.38348540      13.92847469
Pd       0.01052709       8.23577449      13.98183496
Pd       2.75582674       8.38144346      13.93331558
Pd       5.55457001       8.31412496      13.89752710
Pd       8.29368417       8.30057980      13.98326374
Pd      11.00857074       8.10524544      14.06059027
Pd      13.71739758      10.95388765      14.06565901
Pd       2.66773508      11.08209623      14.10654195
Pd       5.46560037      10.99623383      13.90574103
Pd       8.23349791      11.07287703      14.03234410
Pd      10.95110913      10.85167587      13.86374303
Pd      12.55658432       6.46417638      16.32287232
Pd       9.50141089       9.25948646      16.37935734
Pd       2.54914059      12.72678793      16.98296337
Pd       1.50968469       7.03184360      15.94816738
Pd      12.43943913       9.27661927      16.21259343
Pd       9.57274967       1.15516669      16.25081843
Pd       4.60316967       1.47363887      16.28415148
Pd       6.77285546      10.21927580      16.24947694
Pd       4.93060911      12.31826205      16.13033661
Pd      12.07630294      12.20785235      16.02104423
Pd       0.85447569       4.27415726      16.41774177
Pd       3.82837551       4.57887289      16.33866670
Pd      11.30217689       3.18709734      16.73207268
Pd       3.92999179       9.80058681      16.25276840
Pd       6.80087667       7.12666422      16.18447109
Pd       7.19627825      13.64566580      16.35861019
Pd       9.78440718       6.48001981      16.48078118
Pd       7.39087695       3.46337223      16.45426545
Pd       0.73889880       0.93443663      16.93312644
Pd       4.17402688       7.15456568      15.88441277
O        9.21470003       2.89908575      17.10536996
O       10.94172454      10.56879412      15.94502000
O       13.14905681       0.05165775      15.88672834
O       11.68114062       1.67697017      18.01188053
O       10.75205299       0.74316976      17.95806362
O        5.58209435       8.68898645      16.79684250
O        2.83609320       1.51642725      15.42297684
O        2.20196620       1.50775192      18.10770643
O       10.26587397      13.22552795      15.56763352
O        2.30735906      10.97032306      16.13785102
O        3.26675860       0.62924436      17.90089154
O        2.24215376       5.44430532      17.11131960
O        7.98295605       5.38740468      16.03507675
O        8.50384245       7.79089127      17.18298001
O        5.60816097       4.04360000      15.59603766
O       13.26663513       2.88410888      16.12341868
O       11.12964636       5.09704767      15.97147254
O       13.70473674       7.93953334      16.90752960
O        6.47445354       1.64973087      16.93962223
O        7.87225751      11.82095877      15.95570505
