115
Lattice="13.75323 0.0 0.0 0.0 13.75323 0.0 0.0 0.0 23.89" Properties=species:S:1:pos:R:3 entry_id=12 rank=3 energy=-572.0934448242188 parent_id=11 pbc="T T F"
Pd       0.00000000       0.00000000      10.00000000
Pd       2.75064538       0.00000000      10.00000000
Pd       5.50129076       0.00000000      10.00000000
Pd       8.25193614       0.00000000      10.00000000
Pd      11.00258152       0.00000000      10.00000000
Pd       0.00000000       2.75064538      10.00000000
Pd       2.75064538       2.75064538      10.00000000
Pd       5.50129076       2.75064538      10.00000000
Pd       8.25193614       2.75064538      10.00000000
Pd      11.00258152       2.75064538      10.00000000
Pd       0.00000000       5.50129076      10.00000000
Pd       2.75064538       5.50129076      10.00000000
Pd       5.50129076       5.50129076      10.00000000
Pd       8.25193614       5.50129076      10.00000000
Pd      11.00258152       5.50129076      10.00000000
Pd       0.00000000       8.25193614      10.00000000
Pd       2.75064538       8.25193614      10.00000000
Pd       5.50129076       8.25193614      10.00000000
Pd       8.25193614       8.25193614      10.00000000
Pd      11.00258152       8.25193614      10.00000000
Pd       0.00000000      11.00258152      10.00000000
Pd       2.75064538      11.00258152      10.00000000
Pd       5.50129076      11.00258152      10.00000000
Pd       8.25193614      11.00258152      10.00000000
Pd      11.00258152      11.00258152      10.00000000
Pd       1.37681042       1.41419470      12.02795841
Pd       4.09531342       1.41039542      12.00726593
Pd       6.82814132       1.39674308      11.96930548
Pd       9.57512057       1.39592898      11.89594876
Pd      12.38684272       1.37174114      11.92044161
Pd       1.35954504       4.13335197      12.00028632
Pd       4.08827166       4.14198971      12.00593924
Pd       6.83085815       4.13082074      11.98592330
Pd       9.56728621       4.13975942      11.94281254
Pd      12.36578195       4.13265160      11.93417299
Pd       1.37110082       6.89256210      11.94010419
Pd       4.13935064       6.87026939      11.96482277
Pd       6.87097415       6.85831372      11.95140951
Pd       9.64205429       6.82915781      11.94515418
Pd      12.39111484       6.85622887      11.94896407
Pd       1.37944795       9.67833614      11.98624185
Pd       4.11777592       9.66324146      11.95099537
Pd       6.89476706       9.64088005      11.95142944
Pd       9.64982872       9.59779534      11.89439304
Pd      12.42487279       9.60955999      11.94161946
Pd       1.39496249      12.41247293      12.01912604
Pd       4.08420829      12.40623977      12.00369905
Pd       6.86816975      12.39901143      11.97280504
Pd       9.63028672      12.36702810      11.91406436
Pd      12.42514645      12.33758308      11.93976149
Pd       0.08939862       0.00933307      13.98207244
Pd       2.81325182       0.00375915      14.11962028
Pd       5.53223647       0.02497512      13.95749893
Pd       8.22319122       0.02399003      13.87050124
Pd      11.12763046      13.71955829      13.80163856
Pd      13.58270898       2.76752398      14.05461409
Pd       2.61512524       2.97541582      14.13168397
Pd       5.44091548       2.71341774      14.02574586
Pd       8.21984605       2.74195811      13.97136416
Pd      10.89973526       2.68935719      13.92876433
Pd       0.02364638       5.50789144      13.97994054
Pd       2.75375606       5.64848662      13.99349346
Pd       5.54749920       5.58627265      14.04646271
Pd       8.27987015       5.50224132      13.98718879
Pd      11.02560845       5.38975752      13.93391976
Pd       0.01223247       8.25535362      13.97730034
Pd       2.75529202       8.38711126      13.93389268
Pd       5.55311939       8.32158405      13.89743771
Pd       8.29536494       8.28774317      13.96979314
Pd      11.01037634       8.12324838      14.06014747
Pd      13.71368695      10.98023404      14.06536128
Pd       2.66288381      11.09335578      14.12415218
Pd       5.45900690      10.99788776      13.89877079
Pd       8.21690600      11.04321566      14.06003609
Pd      10.95344494      10.87794963      13.87636621
Pd      12.54114891       6.54402998      16.29340570
Pd       9.50276592       9.36852140      16.32213596
Pd       2.55628679      12.70565988      17.04560821
Pd       1.50764332       7.04813662      15.96283932
Pd      12.42364123       9.38072599      16.17485923
Pd       9.43107432       1.37295292      16.15603191
Pd       4.57009983       1.51232859      16.31696873
Pd       6.71849391      10.24287464      16.27290492
Pd       4.89055480      12.33126919      16.09903525
Pd      12.14246835      12.30476048      16.00735310
Pd       0.86288595       4.29434474      16.39661582
Pd       3.84851912       4.57928015      16.32752337
Pd      11.31300531       3.23787566      16.73838365
Pd       3.90179327       9.80298395      16.27004709
Pd       6.79759357       7.16702674      16.18749232
Pd       7.11730853      13.70140723      16.38538287
Pd       9.78950867       6.55969504      16.45523423
Pd       7.40146090       3.52846951      16.48407608
Pd       0.80258406       0.95893629      16.99824818
Pd       4.17162783       7.15918388      15.88276682
O        9.24368685       3.02543583      17.20086832
O       10.94270973      10.72259972      15.95588901
O       13.25999758       0.10106089      15.88145556
O       11.68714148       1.59045267      17.83581848
O       10.86462352       0.59725299      17.51056249
O        5.55267113       8.69591026      16.81456528
O        2.78755291       1.50826338      15.47584115
O        2.25180728       1.46438626      18.21886235
O        9.73731814      13.48772765      15.18214252
O        2.28500556      10.97376103      16.15845435
O        3.31499721       0.59615121      17.95970689
O        2.26246048       5.44650014      17.09912598
O        7.99276209       5.44788970      16.03914234
O        8.51632133       7.88866985      17.12896415
O        5.63176077       4.07109392      15.58115840
O       13.24732783       2.94725468      16.08464637
O       11.12691324       5.14751225      15.98599369
O       13.69182560       8.02903004      16.83828599
O        6.43732444       1.72013703      16.97582606
O        7.78035102      11.85825904      15.98187133
