115
Lattice="13.75323 0.0 0.0 0.0 13.75323 0.0 0.0 0.0 23.89" Properties=species:S:1:pos:R:3 entry_id=9 rank=2 energy=-572.0982055664062 parent_id=7 pbc="T T F"
Pd       0.00000000       0.00000000      10.00000000
Pd       2.75064538       0.00000000      10.00000000
Pd       5.50129076       0.00000000      10.00000000
Pd       8.25193614       0.00000000      10.00000000
Pd      11.00258152       0.00000000      10.00000000
Pd       0.00000000       2.75064538      10.00000000
Pd       2.75064538       2.75064538      10.00000000
Pd       5.50129076       2.75064538      10.00000000
Pd       8.25193614       2.75064538      10.00000000
Pd      11.00258152       2.75064538      10.00000000
Pd       0.00000000       5.50129076      10.00000000
Pd       2.75064538       5.50129076      10.00000000
Pd       5.50129076       5.50129076      10.00000000
Pd       8.25193614       5.50129076      10.00000000
Pd      11.00258152       5.50129076      10.00000000
Pd       0.00000000       8.25193614      10.00000000
Pd       2.75064538       8.25193614      10.00000000
Pd       5.50129076       8.25193614      10.00000000
Pd       8.25193614       8.25193614      10.00000000
Pd      11.00258152       8.25193614      10.00000000
Pd       0.00000000      11.00258152      10.00000000
Pd       2.75064538      11.00258152      10.00000000
Pd       5.50129076      11.00258152      10.00000000
Pd       8.25193614      11.00258152      10.00000000
Pd      11.00258152      11.00258152      10.00000000
Pd       1.37356337       1.41490052      12.02221596
Pd       4.09267936       1.41554150      12.00395268
Pd       6.82499378       1.39677755      11.96759364
Pd       9.57512057       1.39592898      11.89594876
Pd      12.38684272       1.37174114      11.92044161
Pd       1.36369928       4.13457398      12.00211169
Pd       4.09257645       4.14156097      12.00874340
Pd       6.83262368       4.12997833      11.98970453
Pd       9.56728621       4.13975942      11.94281254
Pd      12.36578195       4.13265160      11.93417299
Pd       1.37110082       6.89256210      11.94010419
Pd       4.13935064       6.87026939      11.96482277
Pd       6.87097415       6.85831372      11.95140951
Pd       9.64205429       6.82915781      11.94515418
Pd      12.39111484       6.85622887      11.94896407
Pd       1.38033046       9.67949164      11.99066705
Pd       4.11777592       9.66324146      11.95099537
Pd       6.89476706       9.64088005      11.95142944
Pd       9.64982872       9.59779534      11.89439304
Pd      12.42487279       9.60955999      11.94161946
Pd       1.39673456      12.40837981      12.01885976
Pd       4.08071466      12.40517909      12.00365072
Pd       6.86816975      12.39901143      11.97280504
Pd       9.63028672      12.36702810      11.91406436
Pd      12.42520914      12.33414332      11.94028944
Pd       0.08954261       0.00385183      13.97230750
Pd       2.80944328       0.01611011      14.10375096
Pd       5.52351264       0.02227068      13.95055241
Pd       8.20599766       0.01705134      13.86294278
Pd      11.12429315      13.71476929      13.80395330
Pd      13.58649536       2.75615057      14.05486836
Pd       2.61062639       2.98147189      14.13593058
Pd       5.43971156       2.70706891      14.03311605
Pd       8.22167075       2.73331618      13.96833370
Pd      10.90114410       2.68072823      13.92727726
Pd       0.02949907       5.49729685      13.98046977
Pd       2.76113830       5.65679784      13.99712434
Pd       5.54882158       5.57514192      14.05571891
Pd       8.28248356       5.49535914      13.99280848
Pd      11.03124793       5.37978532      13.94569099
Pd       0.00485412       8.24964107      13.98250325
Pd       2.74985016       8.39420668      13.93912377
Pd       5.54947794       8.31276494      13.89820581
Pd       8.28724437       8.27943690      13.97092962
Pd      11.00219169       8.11324974      14.05893336
Pd      13.70944559      10.97741131      14.06475508
Pd       2.66464165      11.10228408      14.15610057
Pd       5.45960669      10.98774450      13.88563503
Pd       8.20716410      11.03193358      14.07415673
Pd      10.95027307      10.87391497      13.88383072
Pd      12.52925668       6.48828372      16.29620427
Pd       9.49970752       9.33897986      16.30873129
Pd       2.53893834      12.71258464      17.10219710
Pd       1.49062963       7.03916757      15.96275532
Pd      12.39820779       9.35863452      16.17781257
Pd       9.41933950       1.26993229      16.13253427
Pd       4.55092682       1.48697854      16.31049449
Pd       6.64928655      10.18241386      16.26837036
Pd       4.82205814      12.30721377      16.05497331
Pd      12.14441235      12.29578770      16.02800390
Pd       0.84352734       4.27034039      16.41103779
Pd       3.83052242       4.57379360      16.33154023
Pd      11.30336910       3.14422388      16.72455477
Pd       3.83237585       9.78955668      16.32759521
Pd       6.78762609       7.14600284      16.19194383
Pd       7.07969066      13.64075563      16.37822225
Pd       9.78347846       6.49807758      16.45064517
Pd       7.39260309       3.47632087      16.47918877
Pd       0.80075126       0.96250016      17.01674236
Pd       4.16154209       7.15761292      15.88599136
O        9.23604168       2.92359642      17.17494926
O       10.93114553      10.71858402      15.96664974
O       13.31064526       0.05500885      15.88042379
O       11.70865905       1.46742123      17.78484285
O       10.92049017       0.45565602      17.41363629
O        5.47902357       8.64658880      16.84454272
O        2.76448699       1.50543569      15.47759576
O        2.24654149       1.48922906      18.23716146
O        9.71170241      13.38600487      15.15023869
O        2.23843103      10.99112675      16.19802160
O        3.30878218       0.61484247      17.98624874
O        2.23705254       5.43580319      17.09625081
O        7.98185551       5.40217409      16.04435437
O        8.52425930       7.84799342      17.11064457
O        5.61714631       4.05319119      15.59736048
O       13.24870879       2.89880981      16.09250798
O       11.12338928       5.07804895      15.99898378
O       13.65489475       7.99375977      16.83748463
O        6.42285682       1.67022501      16.95926695
O        7.72517450      11.79446115      15.99004034
