115
Lattice="13.75323 0.0 0.0 0.0 13.75323 0.0 0.0 0.0 23.89" Properties=species:S:1:pos:R:3 entry_id=4 rank=5 energy=-571.9994506835938 parent_id=3 pbc="T T F"
Pd       0.00000000       0.00000000      10.00000000
Pd       2.75064538       0.00000000      10.00000000
Pd       5.50129076       0.00000000      10.00000000
Pd       8.25193614       0.00000000      10.00000000
Pd      11.00258152       0.00000000      10.00000000
Pd       0.00000000       2.75064538      10.00000000
Pd       2.75064538       2.75064538      10.00000000
Pd       5.50129076       2.75064538      10.00000000
Pd       8.25193614       2.75064538      10.00000000
Pd      11.00258152       2.75064538      10.00000000
Pd       0.00000000       5.50129076      10.00000000
Pd       2.75064538       5.50129076      10.00000000
Pd       5.50129076       5.50129076      10.00000000
Pd       8.25193614       5.50129076      10.00000000
Pd      11.00258152       5.50129076      10.00000000
Pd       0.00000000       8.25193614      10.00000000
Pd       2.75064538       8.25193614      10.00000000
Pd       5.50129076       8.25193614      10.00000000
Pd       8.25193614       8.25193614      10.00000000
Pd      11.00258152       8.25193614      10.00000000
Pd       0.00000000      11.00258152      10.00000000
Pd       2.75064538      11.00258152      10.00000000
Pd       5.50129076      11.00258152      10.00000000
Pd       8.25193614      11.00258152      10.00000000
Pd      11.00258152      11.00258152      10.00000000
Pd       1.36742833       1.40187651      12.03871051
Pd       4.08936694       1.40100103      12.00919441
Pd       6.82537717       1.39948558      11.96318234
Pd       9.57512057       1.39592898      11.89594876
Pd      12.38684272       1.37174114      11.92044161
Pd       1.36097230       4.12402188      12.00030427
Pd       4.09089378       4.13566943      11.99891500
Pd       6.83341112       4.13240879      11.98350144
Pd       9.56728621       4.13975942      11.94281254
Pd      12.36578195       4.13265160      11.93417299
Pd       1.37110082       6.89256210      11.94010419
Pd       4.13935064       6.87026939      11.96482277
Pd       6.87097415       6.85831372      11.95140951
Pd       9.64205429       6.82915781      11.94515418
Pd      12.39111484       6.85622887      11.94896407
Pd       1.38395373       9.66874367      11.98205280
Pd       4.11777592       9.66324146      11.95099537
Pd       6.89476706       9.64088005      11.95142944
Pd       9.64982872       9.59779534      11.89439304
Pd      12.42487279       9.60955999      11.94161946
Pd       1.39247029      12.40701379      12.02679811
Pd       4.09159946      12.40389175      12.00965054
Pd       6.86816975      12.39901143      11.97280504
Pd       9.63028672      12.36702810      11.91406436
Pd      12.41749887      12.34417043      11.95412350
Pd       0.05824640      13.74431831      14.00612851
Pd       2.81935735      13.73772639      14.12051094
Pd       5.57232974       0.01174536      13.96793823
Pd       8.30021438       0.07358718      13.88493217
Pd      11.03524299      13.74433551      13.81229694
Pd      13.58701586       2.74284925      14.06792899
Pd       2.61785975       2.95838784      14.12893203
Pd       5.44802811       2.70298320      14.01114520
Pd       8.23445990       2.73742607      13.96365313
Pd      10.90077973       2.68914361      13.94572084
Pd       0.02522620       5.48553114      13.97705107
Pd       2.75603542       5.62782405      13.98270381
Pd       5.54724560       5.57485750      14.04270801
Pd       8.27882623       5.50929671      13.98254030
Pd      11.02529120       5.39241017      13.91866246
Pd       0.02143081       8.23370243      13.97857931
Pd       2.76689733       8.37073478      13.93254151
Pd       5.55883640       8.31089398      13.90333545
Pd       8.30109033       8.30761544      13.98037309
Pd      11.02001580       8.12006244      14.05959964
Pd      13.73455293      10.95529211      14.06061426
Pd       2.68602776      11.06955227      14.11697098
Pd       5.48382787      10.98861754      13.91134428
Pd       8.25520831      11.08360418      14.01552225
Pd      10.96878473      10.86894323      13.86421620
Pd      12.56244504       6.51080831      16.30502317
Pd       9.52915801       9.30312281      16.36549000
Pd       2.62884673      12.65802183      17.01384556
Pd       1.52083414       7.02702047      15.94976754
Pd      12.46689917       9.32022184      16.19992652
Pd       9.60661052       1.19055446      16.25672268
Pd       4.60653585       1.47775678      16.29309130
Pd       6.86004932      10.29502333      16.27086158
Pd       4.99639872      12.31947509      16.13605404
Pd      12.13856210      12.23642235      16.02987772
Pd       0.85601235       4.28274076      16.40529622
Pd       3.83839281       4.56469434      16.33246956
Pd      11.30743502       3.23547716      16.71870229
Pd       4.00832823       9.78530561      16.26136109
Pd       6.80086559       7.16637303      16.19786383
Pd       7.23359077      13.69542983      16.34577963
Pd       9.78913517       6.52289833      16.45538711
Pd       7.39513363       3.49681166      16.44124168
Pd       0.83360941       0.87412739      17.00776387
Pd       4.17713399       7.13260298      15.87356711
O        9.21874637       2.94187796      17.08842839
O       10.97201092      10.61563782      15.94294473
O       13.23491261       0.06580465      15.92168730
O       11.69158123       1.74809912      18.03099183
O       10.75596733       0.82270300      18.00202207
O        5.68982659       8.77100404      16.82015868
O        2.81469718       1.49227791      15.46948192
O        2.29203037       1.40256598      18.20550973
O       10.35055301      13.26855271      15.61768441
O        2.36464382      10.91827669      16.14745509
O        3.36680070       0.55464267      17.93464870
O        2.25691597       5.43338005      17.10922848
O        7.97406157       5.42569480      16.02814799
O        8.52246667       7.83834110      17.16394718
O        5.61562448       4.05405466      15.57548309
O       13.24565947       2.93211635      16.09223457
O       11.13532729       5.14109339      15.95871228
O       13.72728275       7.97505151      16.88640963
O        6.48424744       1.68546725      16.92781337
O        7.94696367      11.88920858      15.93327586
