115
Lattice="13.75323 0.0 0.0 0.0 13.75323 0.0 0.0 0.0 23.89" Properties=species:S:1:pos:R:3 entry_id=2 rank=11 energy=-569.76318359375 parent_id=1 pbc="T T F"
Pd       0.00000000       0.00000000      10.00000000
Pd       2.75064538       0.00000000      10.00000000
Pd       5.50129076       0.00000000      10.00000000
Pd       8.25193614       0.00000000      10.00000000
Pd      11.00258152       0.00000000      10.00000000
Pd       0.00000000       2.75064538      10.00000000
Pd       2.75064538       2.75064538      10.00000000
Pd       5.50129076       2.75064538      10.00000000
Pd       8.25193614       2.75064538      10.00000000
Pd      11.00258152       2.75064538      10.00000000
Pd       0.00000000       5.50129076      10.00000000
Pd       2.75064538       5.50129076      10.00000000
Pd       5.50129076       5.50129076      10.00000000
Pd       8.25193614       5.50129076      10.00000000
Pd      11.00258152       5.50129076      10.00000000
Pd       0.00000000       8.25193614      10.00000000
Pd       2.75064538       8.25193614      10.00000000
Pd       5.50129076       8.25193614      10.00000000
Pd       8.25193614       8.25193614      10.00000000
Pd      11.00258152       8.25193614      10.00000000
Pd       0.00000000      11.00258152      10.00000000
Pd       2.75064538      11.00258152      10.00000000
Pd       5.50129076      11.00258152      10.00000000
Pd       8.25193614      11.00258152      10.00000000
Pd      11.00258152      11.00258152      10.00000000
Pd       1.36931980       1.37030859      12.03100728
Pd       4.14280841       1.37750946      11.96940616
Pd       6.89075741       1.34309615      12.03833785
Pd       9.57512057       1.39592898      11.89594876
Pd      12.38684272       1.37174114      11.92044161
Pd       1.37712500       4.11499591      12.00656309
Pd       4.10753478       4.10584820      11.96117697
Pd       6.87061535       4.08960843      11.99950538
Pd       9.56728621       4.13975942      11.94281254
Pd      12.36578195       4.13265160      11.93417299
Pd       1.37110082       6.89256210      11.94010419
Pd       4.13935064       6.87026939      11.96482277
Pd       6.87097415       6.85831372      11.95140951
Pd       9.64205429       6.82915781      11.94515418
Pd      12.39111484       6.85622887      11.94896407
Pd       1.35578587       9.67757993      11.98387904
Pd       4.11777592       9.66324146      11.95099537
Pd       6.89476706       9.64088005      11.95142944
Pd       9.64982872       9.59779534      11.89439304
Pd      12.42487279       9.60955999      11.94161946
Pd       1.40336008      12.41081223      12.01003700
Pd       4.14849747      12.38193879      12.02330938
Pd       6.86816975      12.39901143      11.97280504
Pd       9.63028672      12.36702810      11.91406436
Pd      12.41385939      12.34964356      11.96602302
Pd      13.70831353      13.73437337      14.04498058
Pd       2.79222619       0.00477350      14.10249371
Pd       5.56632250      13.74385709      14.12425188
Pd       8.30450139      13.69887492      14.12602464
Pd      10.97814500       0.10866045      13.76061907
Pd      13.70592152       2.76834462      14.00087315
Pd       2.75780959       2.77524421      14.08343009
Pd       5.50629450       2.82378922      14.03422479
Pd       8.32983684       2.75426017      14.11762497
Pd      10.99144173       2.78320599      13.98678116
Pd       0.04348996       5.49555529      14.01949063
Pd       2.75461217       5.51110450      13.98704039
Pd       5.48294453       5.51183623      13.88941652
Pd       8.30528065       5.52512437      13.97824770
Pd      11.07226288       5.47057577      13.97625104
Pd      13.68751405       8.27303767      13.94742507
Pd       2.71696207       8.27123736      13.87461216
Pd       5.42285801       8.21194862      13.94374445
Pd       8.18379750       8.25127061      13.88034812
Pd      10.90950831       8.15394236      13.95692298
Pd       0.00418790      10.96501337      14.12959488
Pd       2.77855264      11.06475887      13.99077060
Pd       5.60420970      10.92334510      13.98708082
Pd       8.40526762      10.94900813      13.93089509
Pd      11.05470417      10.89199339      13.90006835
Pd      12.54219270       6.70667864      16.21408730
Pd       9.12936688       7.81688052      16.32882219
Pd       2.21301612      12.57401953      16.79099174
Pd       1.44869255       7.10723404      15.92680084
Pd      11.62259693       9.34854821      16.24070440
Pd       9.64414218       1.37242954      16.30076426
Pd       4.87116088       0.29244592      17.82804690
Pd       6.55354781       8.77477836      16.28034052
Pd       4.63559591      12.09186881      16.13148902
Pd      11.25887802      12.49078614      15.93779151
Pd       1.78990439       4.41283628      16.36794516
Pd       4.36517630       3.85665879      17.41045631
Pd      12.17767418       3.06071847      16.73100829
Pd       3.80314726       9.55329213      15.98356430
Pd       6.41855362       5.21177172      16.39873079
Pd       7.17392238      12.30734608      16.50675570
Pd      10.10159765       5.16720405      16.52314376
Pd       7.00148137       1.74131344      16.64247660
Pd       1.23883890       1.20068899      15.99816914
Pd       4.11772733       6.85216937      15.95562031
O       10.23661459       3.07184423      17.12584375
O        9.79710451       9.55982369      16.71417219
O       13.18280375      12.36018553      15.51948585
O       12.51878486       1.12943491      17.19920010
O       11.39803124       0.37660834      17.29443872
O        5.88579168       7.04879418      16.98420161
O        4.19388499       1.41717977      14.88976201
O        2.25282454       1.50793580      17.70098364
O        9.26247281      13.13391872      15.97718726
O        2.05990631      10.83263912      15.89927215
O        2.86047897       0.27622774      18.03967883
O        3.25333853       5.43260106      17.18752636
O        6.92321234       3.40359405      15.60162038
O        8.37498341       5.95505926      16.01872036
O        5.38585330       2.29864736      17.83585259
O        0.31005452       3.09087988      16.06646587
O       11.96504408       5.03549949      17.05204279
O       13.44568101       8.50012115      15.99440609
O        6.85962043       0.07866228      17.70215923
O        7.14709103      10.56400604      15.54681046
