115
Lattice="13.75323 0.0 0.0 0.0 13.75323 0.0 0.0 0.0 23.89" Properties=species:S:1:pos:R:3 entry_id=5 rank=2 energy=-568.3937377929688 parent_id=4 pbc="T T F"
Pd       0.00000000       0.00000000      10.00000000
Pd       2.75064538       0.00000000      10.00000000
Pd       5.50129076       0.00000000      10.00000000
Pd       8.25193614       0.00000000      10.00000000
Pd      11.00258152       0.00000000      10.00000000
Pd       0.00000000       2.75064538      10.00000000
Pd       2.75064538       2.75064538      10.00000000
Pd       5.50129076       2.75064538      10.00000000
Pd       8.25193614       2.75064538      10.00000000
Pd      11.00258152       2.75064538      10.00000000
Pd       0.00000000       5.50129076      10.00000000
Pd       2.75064538       5.50129076      10.00000000
Pd       5.50129076       5.50129076      10.00000000
Pd       8.25193614       5.50129076      10.00000000
Pd      11.00258152       5.50129076      10.00000000
Pd       0.00000000       8.25193614      10.00000000
Pd       2.75064538       8.25193614      10.00000000
Pd       5.50129076       8.25193614      10.00000000
Pd       8.25193614       8.25193614      10.00000000
Pd      11.00258152       8.25193614      10.00000000
Pd       0.00000000      11.00258152      10.00000000
Pd       2.75064538      11.00258152      10.00000000
Pd       5.50129076      11.00258152      10.00000000
Pd       8.25193614      11.00258152      10.00000000
Pd      11.00258152      11.00258152      10.00000000
Pd       1.34352258       1.38140725      12.08387497
Pd       4.09708049       1.39135764      12.02343533
Pd       6.83006118       1.36901958      12.03312353
Pd       9.57512057       1.39592898      11.89594876
Pd      12.38684272       1.37174114      11.92044161
Pd       1.36304518       4.11879418      11.98316470
Pd       4.10030964       4.12349200      12.03999292
Pd       6.80721183       4.09756346      12.02230449
Pd       9.56728621       4.13975942      11.94281254
Pd      12.36578195       4.13265160      11.93417299
Pd       1.37110082       6.89256210      11.94010419
Pd       4.13935064       6.87026939      11.96482277
Pd       6.87097415       6.85831372      11.95140951
Pd       9.64205429       6.82915781      11.94515418
Pd      12.39111484       6.85622887      11.94896407
Pd       1.35700467       9.70219010      12.00197030
Pd       4.11777592       9.66324146      11.95099537
Pd       6.89476706       9.64088005      11.95142944
Pd       9.64982872       9.59779534      11.89439304
Pd      12.42487279       9.60955999      11.94161946
Pd       1.38105067      12.43278535      12.05852861
Pd       4.09836356      12.39319933      12.00804047
Pd       6.86816975      12.39901143      11.97280504
Pd       9.63028672      12.36702810      11.91406436
Pd      12.44593786      12.34044546      11.97976371
Pd      13.68429004      13.71640412      14.14203868
Pd       2.74613152       0.14254430      14.18571541
Pd       5.58291702      13.57060566      14.04055847
Pd       8.32438183       0.10447978      14.03079996
Pd      11.01123735       0.06304937      13.76529061
Pd      13.55204249       2.74360653      13.99474455
Pd       2.59858538       2.89973549      14.11440904
Pd       5.37019132       2.65693272      14.18457518
Pd       8.18939587       2.74443204      13.99430784
Pd      10.86440999       2.71062667      13.88102785
Pd       0.02385410       5.51934449      13.94539436
Pd       2.72628433       5.58985607      14.00979009
Pd       5.45561493       5.47148409      14.07677094
Pd       8.27510120       5.47485642      14.02997221
Pd      11.00242167       5.39217934      13.97408606
Pd       0.05026648       8.32737031      13.97948891
Pd       2.75522641       8.29452367      13.89360129
Pd       5.49221296       8.25159282      13.95450548
Pd       8.39763039       8.21502799      13.82413701
Pd      11.08068272       8.19397126      13.93664195
Pd      13.58413041      10.96169313      14.54345120
Pd       2.74525241      11.08478284      14.02409586
Pd       5.55911134      10.89733184      13.95791570
Pd       8.34564566      11.00977308      13.93022971
Pd      11.04521486      10.88467617      13.83226077
Pd      12.43075538       6.57482857      16.10766967
Pd       8.73640727       9.60119667      16.23839335
Pd       2.05545175      12.73544830      16.64387459
Pd       1.41310557       6.99726973      16.24837777
Pd      11.87332425       9.37995294      16.30351756
Pd       8.30457258       1.34671475      17.01139467
Pd       5.02440433       0.35140645      17.18244346
Pd       5.64133212       9.60218898      17.06278328
Pd       4.40837088      11.75241063      16.15469675
Pd      10.85860153      12.42480649      15.91865049
Pd       0.80190919       4.27070969      16.31143102
Pd       3.84451633       4.38978081      16.33606449
Pd      11.12224023       3.13960186      16.55903446
Pd       2.98395697       9.49949498      16.28507288
Pd       7.26098339       7.10837302      16.88009267
Pd       6.98998808      11.92558915      16.19972416
Pd       9.72869319       6.97069456      15.96824039
Pd       7.40820306       3.67650915      16.44864729
Pd       1.08683034       1.49005704      16.03963814
Pd       4.08506236       7.07425137      15.92020780
O        9.20278850       3.09462908      17.12620891
O       10.38995946      10.52342342      16.84621090
O       12.85689791      12.54557172      15.67404187
O       11.37371012       1.28379434      17.26246604
O       10.34342861       0.42852234      17.16650484
O        5.25972822       7.60256466      17.39641356
O        4.41934788       0.99723785      15.22135451
O        2.43708344       1.66165904      17.49650028
O        8.87957391      12.46023478      15.44326050
O        1.54285148      10.99291737      15.80820774
O        3.03912081       0.40047780      17.68960136
O        2.26726069       5.35520429      17.02195247
O        6.98288147       5.54777889      15.67079449
O        7.54298371       8.85832415      17.78028816
O        5.48296158       3.33863899      16.10309314
O       13.10662067       2.96090382      16.01008312
O       11.02051485       5.16432891      16.06330494
O       13.53705784       8.23660187      16.06250425
O        6.95960545      13.71077606      17.21781830
O        7.07183607       8.61961910      15.27383329
