115
Lattice="13.75323 0.0 0.0 0.0 13.75323 0.0 0.0 0.0 23.89" Properties=species:S:1:pos:R:3 entry_id=4 rank=4 energy=-568.3905639648438 parent_id=2 pbc="T T F"
Pd       0.00000000       0.00000000      10.00000000
Pd       2.75064538       0.00000000      10.00000000
Pd       5.50129076       0.00000000      10.00000000
Pd       8.25193614       0.00000000      10.00000000
Pd      11.00258152       0.00000000      10.00000000
Pd       0.00000000       2.75064538      10.00000000
Pd       2.75064538       2.75064538      10.00000000
Pd       5.50129076       2.75064538      10.00000000
Pd       8.25193614       2.75064538      10.00000000
Pd      11.00258152       2.75064538      10.00000000
Pd       0.00000000       5.50129076      10.00000000
Pd       2.75064538       5.50129076      10.00000000
Pd       5.50129076       5.50129076      10.00000000
Pd       8.25193614       5.50129076      10.00000000
Pd      11.00258152       5.50129076      10.00000000
Pd       0.00000000       8.25193614      10.00000000
Pd       2.75064538       8.25193614      10.00000000
Pd       5.50129076       8.25193614      10.00000000
Pd       8.25193614       8.25193614      10.00000000
Pd      11.00258152       8.25193614      10.00000000
Pd       0.00000000      11.00258152      10.00000000
Pd       2.75064538      11.00258152      10.00000000
Pd       5.50129076      11.00258152      10.00000000
Pd       8.25193614      11.00258152      10.00000000
Pd      11.00258152      11.00258152      10.00000000
Pd       1.33873415       1.38267257      12.07265797
Pd       4.09522835       1.38989884      12.01298807
Pd       6.82912852       1.36959301      12.03170674
Pd       9.57512057       1.39592898      11.89594876
Pd      12.38684272       1.37174114      11.92044161
Pd       1.36100304       4.11873078      11.98457295
Pd       4.09873234       4.12515101      12.03509758
Pd       6.80930342       4.10127352      12.01759483
Pd       9.56728621       4.13975942      11.94281254
Pd      12.36578195       4.13265160      11.93417299
Pd       1.37110082       6.89256210      11.94010419
Pd       4.13935064       6.87026939      11.96482277
Pd       6.87097415       6.85831372      11.95140951
Pd       9.64205429       6.82915781      11.94515418
Pd      12.39111484       6.85622887      11.94896407
Pd       1.35734326       9.70118201      12.00410077
Pd       4.11777592       9.66324146      11.95099537
Pd       6.89476706       9.64088005      11.95142944
Pd       9.64982872       9.59779534      11.89439304
Pd      12.42487279       9.60955999      11.94161946
Pd       1.37876005      12.43048608      12.06382950
Pd       4.09913917      12.39116113      12.00560321
Pd       6.86816975      12.39901143      11.97280504
Pd       9.63028672      12.36702810      11.91406436
Pd      12.44581304      12.34319508      11.97849881
Pd      13.66910417      13.72316310      14.15064652
Pd       2.71993393       0.13415650      14.15981622
Pd       5.56713039      13.57819717      14.04741260
Pd       8.31249654       0.09791484      14.02806682
Pd      11.00250735       0.06531793      13.76482311
Pd      13.55385092       2.74413526      13.99427974
Pd       2.59860272       2.89322778      14.11037061
Pd       5.37866849       2.66758889      14.15987128
Pd       8.19127693       2.74087099      13.98954368
Pd      10.86603391       2.71373321      13.87955379
Pd       0.02229612       5.52241560      13.94591431
Pd       2.72484397       5.58387513      14.00896892
Pd       5.45621818       5.47751227      14.07386544
Pd       8.27659761       5.47102756      14.02982817
Pd      11.00270281       5.39387392      13.97168669
Pd       0.04688198       8.32791284      13.98063551
Pd       2.75433150       8.28853928      13.89332682
Pd       5.49087608       8.26032299      13.95960882
Pd       8.39530033       8.21034857      13.82471954
Pd      11.07752718       8.19320449      13.93518697
Pd      13.59264947      10.96858291      14.53554670
Pd       2.75559096      11.07928683      14.02727402
Pd       5.56344030      10.90655666      13.95761625
Pd       8.35115580      11.00014206      13.93009507
Pd      11.05061427      10.88446210      13.82796053
Pd      12.43310560       6.57445168      16.10732240
Pd       8.72739121       9.58927194      16.24167209
Pd       2.07540520      12.74253563      16.62759101
Pd       1.41620313       7.00313588      16.25187762
Pd      11.87002405       9.37754793      16.29910663
Pd       8.31926520       1.34439830      17.00518091
Pd       5.06473623       0.37061985      17.09021385
Pd       5.64107178       9.57738793      17.07559725
Pd       4.42187501      11.72990565      16.17494795
Pd      10.85776385      12.41831811      15.91487054
Pd       0.81282683       4.27838793      16.31202736
Pd       3.85038259       4.38140524      16.32702906
Pd      11.13210522       3.14085042      16.55538593
Pd       2.98325913       9.48882980      16.28547342
Pd       7.26234350       7.08765217      16.88606410
Pd       7.00264757      11.90589733      16.20759669
Pd       9.73024507       6.96784786      15.97128529
Pd       7.41050768       3.66740767      16.44469056
Pd       1.08387434       1.49749233      16.05054094
Pd       4.08710347       7.06561538      15.91805235
O        9.20928031       3.09785373      17.11939683
O       10.38164664      10.51484933      16.83993294
O       12.85416781      12.54455621      15.67633122
O       11.38450390       1.28240831      17.25081020
O       10.35212592       0.42731546      17.15978023
O        5.25982157       7.57839071      17.40181035
O        4.36358434       1.03160416      15.17311792
O        2.46092746       1.66414767      17.48480201
O        8.88092381      12.45129372      15.43538987
O        1.55074234      10.99683098      15.80606244
O        3.07878050       0.40942378      17.64964488
O        2.28363125       5.36349712      17.01831613
O        6.98251136       5.53665796      15.66857698
O        7.54161313       8.83702577      17.79000370
O        5.48569535       3.31981133      16.09322374
O       13.11850751       2.96744390      16.01137674
O       11.02463842       5.16296772      16.05954833
O       13.53718079       8.23791797      16.06389206
O        6.99088559      13.69802503      17.21587593
O        7.07267195       8.59811759      15.28196788
