115
Lattice="13.75323 0.0 0.0 0.0 13.75323 0.0 0.0 0.0 23.89" Properties=species:S:1:pos:R:3 entry_id=3 rank=3 energy=-568.3922119140625 parent_id=2 pbc="T T F"
Pd       0.00000000       0.00000000      10.00000000
Pd       2.75064538       0.00000000      10.00000000
Pd       5.50129076       0.00000000      10.00000000
Pd       8.25193614       0.00000000      10.00000000
Pd      11.00258152       0.00000000      10.00000000
Pd       0.00000000       2.75064538      10.00000000
Pd       2.75064538       2.75064538      10.00000000
Pd       5.50129076       2.75064538      10.00000000
Pd       8.25193614       2.75064538      10.00000000
Pd      11.00258152       2.75064538      10.00000000
Pd       0.00000000       5.50129076      10.00000000
Pd       2.75064538       5.50129076      10.00000000
Pd       5.50129076       5.50129076      10.00000000
Pd       8.25193614       5.50129076      10.00000000
Pd      11.00258152       5.50129076      10.00000000
Pd       0.00000000       8.25193614      10.00000000
Pd       2.75064538       8.25193614      10.00000000
Pd       5.50129076       8.25193614      10.00000000
Pd       8.25193614       8.25193614      10.00000000
Pd      11.00258152       8.25193614      10.00000000
Pd       0.00000000      11.00258152      10.00000000
Pd       2.75064538      11.00258152      10.00000000
Pd       5.50129076      11.00258152      10.00000000
Pd       8.25193614      11.00258152      10.00000000
Pd      11.00258152      11.00258152      10.00000000
Pd       1.34311116       1.37995795      12.08483906
Pd       4.09466381       1.39040765      12.02995158
Pd       6.82824320       1.36792875      12.03076366
Pd       9.57512057       1.39592898      11.89594876
Pd      12.38684272       1.37174114      11.92044161
Pd       1.36298309       4.11772116      11.98674530
Pd       4.09698473       4.12151411      12.03993869
Pd       6.80847607       4.09734906      12.02076445
Pd       9.56728621       4.13975942      11.94281254
Pd      12.36578195       4.13265160      11.93417299
Pd       1.37110082       6.89256210      11.94010419
Pd       4.13935064       6.87026939      11.96482277
Pd       6.87097415       6.85831372      11.95140951
Pd       9.64205429       6.82915781      11.94515418
Pd      12.39111484       6.85622887      11.94896407
Pd       1.35634027       9.70066190      12.00291582
Pd       4.11777592       9.66324146      11.95099537
Pd       6.89476706       9.64088005      11.95142944
Pd       9.64982872       9.59779534      11.89439304
Pd      12.42487279       9.60955999      11.94161946
Pd       1.38371401      12.43139174      12.06007264
Pd       4.10118417      12.39379997      12.00754667
Pd       6.86816975      12.39901143      11.97280504
Pd       9.63028672      12.36702810      11.91406436
Pd      12.44753357      12.34282264      11.97872379
Pd      13.68150938      13.72440539      14.14092504
Pd       2.74215300       0.13776764      14.19304068
Pd       5.57331484      13.57636582      14.03945546
Pd       8.31952078       0.10115488      14.02729946
Pd      11.00941961       0.06754983      13.76262829
Pd      13.54931950       2.74422516      13.99991707
Pd       2.59099865       2.89489148      14.12337622
Pd       5.36284181       2.66129408      14.18618033
Pd       8.18023391       2.74345433      13.99439359
Pd      10.86082935       2.71780039      13.87935311
Pd       0.02376672       5.51690844      13.95128157
Pd       2.72296427       5.58290902      14.01969159
Pd       5.45205186       5.47468933      14.06706757
Pd       8.27807537       5.47816328      14.02876086
Pd      11.00429346       5.39908163      13.97214740
Pd       0.05038839       8.31572457      13.97750972
Pd       2.75351495       8.28494417      13.89217134
Pd       5.49384926       8.25675520      13.95159270
Pd       8.39768362       8.21546150      13.82501666
Pd      11.08032496       8.19640115      13.93460703
Pd      13.59639967      10.96523329      14.49297795
Pd       2.76044717      11.07506477      14.01719595
Pd       5.56380892      10.90108832      13.95970503
Pd       8.34692812      11.00971186      13.92858207
Pd      11.04353026      10.88619963      13.82803019
Pd      12.43957608       6.58070037      16.10839914
Pd       8.74848045       9.61391829      16.23420485
Pd       2.03426970      12.71215504      16.63447779
Pd       1.42534192       7.00105006      16.27171735
Pd      11.89492950       9.38252399      16.29193186
Pd       8.29737089       1.37712612      16.95052309
Pd       4.98545743       0.35698976      17.19594434
Pd       5.65500336       9.62515793      17.06463491
Pd       4.40411556      11.75930524      16.15424607
Pd      10.86828878      12.42748536      15.91295505
Pd       0.81135935       4.27957085      16.33228283
Pd       3.84022681       4.40184444      16.35122587
Pd      11.13016288       3.15478199      16.55400184
Pd       3.00035062       9.49381541      16.27838185
Pd       7.26608673       7.13397258      16.87575927
Pd       6.98518641      11.95040738      16.18733695
Pd       9.73402191       6.97825078      15.97100842
Pd       7.41197338       3.72118503      16.43730243
Pd       1.07428036       1.48897877      16.05320803
Pd       4.09604575       7.06926453      15.91487879
O        9.20639843       3.11800195      17.10514201
O       10.41182084      10.52572933      16.83240599
O       12.86741735      12.53839021      15.65999374
O       11.37233654       1.29474537      17.24420260
O       10.33980112       0.44502349      17.13240662
O        5.26276038       7.62795261      17.38784914
O        4.41524814       1.00378458      15.23360030
O        2.38498980       1.62126912      17.54961321
O        8.88692585      12.46223753      15.44264445
O        1.54447286      10.97394898      15.77917970
O        3.00507442       0.36433741      17.70920807
O        2.27189666       5.36360197      17.05882659
O        6.97390590       5.58169077      15.65962022
O        7.55627362       8.87901188      17.78201028
O        5.48544381       3.36917685      16.09507815
O       13.11745964       2.97411575      16.01653388
O       11.02851761       5.17378591      16.06046438
O       13.55508995       8.23663295      16.05975082
O        6.92966360       0.00916670      17.15590112
O        7.07294133       8.64574284      15.27075769
