115
Lattice="13.75323 0.0 0.0 0.0 13.75323 0.0 0.0 0.0 23.89" Properties=species:S:1:pos:R:3 entry_id=0 rank=1 energy=-568.3948974609375 parent_id=-1 pbc="T T F"
Pd       0.00000000       0.00000000      10.00000000
Pd       2.75064538       0.00000000      10.00000000
Pd       5.50129076       0.00000000      10.00000000
Pd       8.25193614       0.00000000      10.00000000
Pd      11.00258152       0.00000000      10.00000000
Pd       0.00000000       2.75064538      10.00000000
Pd       2.75064538       2.75064538      10.00000000
Pd       5.50129076       2.75064538      10.00000000
Pd       8.25193614       2.75064538      10.00000000
Pd      11.00258152       2.75064538      10.00000000
Pd       0.00000000       5.50129076      10.00000000
Pd       2.75064538       5.50129076      10.00000000
Pd       5.50129076       5.50129076      10.00000000
Pd       8.25193614       5.50129076      10.00000000
Pd      11.00258152       5.50129076      10.00000000
Pd       0.00000000       8.25193614      10.00000000
Pd       2.75064538       8.25193614      10.00000000
Pd       5.50129076       8.25193614      10.00000000
Pd       8.25193614       8.25193614      10.00000000
Pd      11.00258152       8.25193614      10.00000000
Pd       0.00000000      11.00258152      10.00000000
Pd       2.75064538      11.00258152      10.00000000
Pd       5.50129076      11.00258152      10.00000000
Pd       8.25193614      11.00258152      10.00000000
Pd      11.00258152      11.00258152      10.00000000
Pd       1.34624867       1.38086058      12.08141001
Pd       4.09711601       1.39052641      12.02480415
Pd       6.82982610       1.36956117      12.02878524
Pd       9.57512057       1.39592898      11.89594876
Pd      12.38684272       1.37174114      11.92044161
Pd       1.36477461       4.11655133      11.98602793
Pd       4.10062110       4.12336390      12.03935957
Pd       6.80966172       4.10127742      12.01945974
Pd       9.56728621       4.13975942      11.94281254
Pd      12.36578195       4.13265160      11.93417299
Pd       1.37110082       6.89256210      11.94010419
Pd       4.13935064       6.87026939      11.96482277
Pd       6.87097415       6.85831372      11.95140951
Pd       9.64205429       6.82915781      11.94515418
Pd      12.39111484       6.85622887      11.94896407
Pd       1.35619966       9.70032012      11.99805940
Pd       4.11777592       9.66324146      11.95099537
Pd       6.89476706       9.64088005      11.95142944
Pd       9.64982872       9.59779534      11.89439304
Pd      12.42487279       9.60955999      11.94161946
Pd       1.38043857      12.43191780      12.05377225
Pd       4.10023331      12.39284519      12.00408947
Pd       6.86816975      12.39901143      11.97280504
Pd       9.63028672      12.36702810      11.91406436
Pd      12.44376025      12.34107113      11.97881987
Pd      13.68380099      13.72509071      14.13496474
Pd       2.74101749       0.13689496      14.18795505
Pd       5.57274260      13.58415188      14.03504090
Pd       8.32208861       0.10873310      14.02896373
Pd      11.00943241       0.06540771      13.76260328
Pd      13.56160358       2.74995969      13.99055920
Pd       2.60935442       2.89247528      14.11902124
Pd       5.38705117       2.66354276      14.17472492
Pd       8.19635864       2.74739794      13.98470774
Pd      10.87232344       2.71372084      13.87796128
Pd       0.02065512       5.52364677      13.94649024
Pd       2.72278674       5.58685999      14.00785225
Pd       5.45642215       5.48201937      14.06965073
Pd       8.27767611       5.48390490      14.03245700
Pd      11.00185265       5.39660022      13.97229601
Pd       0.04970048       8.32457204      13.97807757
Pd       2.75358645       8.29350811      13.88785507
Pd       5.49568949       8.26293565      13.94878525
Pd       8.40019819       8.22064339      13.82458535
Pd      11.08214216       8.19516458      13.93712251
Pd      13.58925521      10.96821162      14.50066181
Pd       2.74689754      11.08183774      14.01331005
Pd       5.55693413      10.90586558      13.95548227
Pd       8.34038968      11.01502773      13.92443447
Pd      11.03612812      10.88291513      13.82900576
Pd      12.43757921       6.59286461      16.10454994
Pd       8.74020509       9.62198675      16.23414028
Pd       2.03064665      12.72897340      16.64119042
Pd       1.41921242       7.01587309      16.25549040
Pd      11.87892843       9.39104138      16.30172319
Pd       8.32076695       1.37678608      16.95451971
Pd       4.98985522       0.37834287      17.18447738
Pd       5.65049500       9.65132557      17.05436876
Pd       4.39381971      11.78166082      16.13856138
Pd      10.86717680      12.42523614      15.91205572
Pd       0.84942596       4.28626699      16.30384854
Pd       3.88140886       4.40496189      16.31831911
Pd      11.15781685       3.15618431      16.54905761
Pd       2.99011065       9.51113287      16.27592536
Pd       7.25968099       7.14726489      16.87912247
Pd       6.97181169      11.97801077      16.16844526
Pd       9.73205653       6.98601825      15.97462108
Pd       7.44858059       3.72303730      16.42948844
Pd       1.07454272       1.49117613      16.04522018
Pd       4.09053058       7.08731074      15.90613660
O        9.23782388       3.11397035      17.10109577
O       10.39576949      10.53337255      16.84741365
O       12.86567828      12.54157294      15.65830884
O       11.40037104       1.29083543      17.22752145
O       10.36251173       0.44711202      17.13441457
O        5.25436862       7.65414220      17.37633809
O        4.40724696       1.01623908      15.22002466
O        2.39076460       1.64077174      17.53609481
O        8.88600133      12.46474998      15.43789776
O        1.53670028      10.98904444      15.78943588
O        3.00987975       0.38457321      17.70403105
O        2.31053309       5.38259659      17.01126613
O        6.98072441       5.58701189      15.66939280
O        7.53889024       8.89924015      17.78028811
O        5.52324332       3.35578235      16.08824319
O       13.14555082       2.98278148      16.01059825
O       11.03822587       5.17652336      16.05772403
O       13.54547776       8.25303108      16.06253392
O        6.93505472       0.02468643      17.15652208
O        7.07532465       8.65267808      15.26882659
