115
Lattice="13.75323 0.0 0.0 0.0 13.75323 0.0 0.0 0.0 23.89" Properties=species:S:1:pos:R:3 entry_id=1 rank=5 energy=-568.3025512695312 parent_id=0 pbc="T T F"
Pd       0.00000000       0.00000000      10.00000000
Pd       2.75064538       0.00000000      10.00000000
Pd       5.50129076       0.00000000      10.00000000
Pd       8.25193614       0.00000000      10.00000000
Pd      11.00258152       0.00000000      10.00000000
Pd       0.00000000       2.75064538      10.00000000
Pd       2.75064538       2.75064538      10.00000000
Pd       5.50129076       2.75064538      10.00000000
Pd       8.25193614       2.75064538      10.00000000
Pd      11.00258152       2.75064538      10.00000000
Pd       0.00000000       5.50129076      10.00000000
Pd       2.75064538       5.50129076      10.00000000
Pd       5.50129076       5.50129076      10.00000000
Pd       8.25193614       5.50129076      10.00000000
Pd      11.00258152       5.50129076      10.00000000
Pd       0.00000000       8.25193614      10.00000000
Pd       2.75064538       8.25193614      10.00000000
Pd       5.50129076       8.25193614      10.00000000
Pd       8.25193614       8.25193614      10.00000000
Pd      11.00258152       8.25193614      10.00000000
Pd       0.00000000      11.00258152      10.00000000
Pd       2.75064538      11.00258152      10.00000000
Pd       5.50129076      11.00258152      10.00000000
Pd       8.25193614      11.00258152      10.00000000
Pd      11.00258152      11.00258152      10.00000000
Pd       1.35929735       1.33970803      12.00937951
Pd       4.10945997       1.35837574      11.95328379
Pd       6.86259407       1.37241300      12.00463989
Pd       9.57512057       1.39592898      11.89594876
Pd      12.38684272       1.37174114      11.92044161
Pd       1.37790497       4.12182362      11.95899002
Pd       4.12579024       4.13623845      11.98991701
Pd       6.83419856       4.10480180      12.02719584
Pd       9.56728621       4.13975942      11.94281254
Pd      12.36578195       4.13265160      11.93417299
Pd       1.37110082       6.89256210      11.94010419
Pd       4.13935064       6.87026939      11.96482277
Pd       6.87097415       6.85831372      11.95140951
Pd       9.64205429       6.82915781      11.94515418
Pd      12.39111484       6.85622887      11.94896407
Pd       1.34845871       9.67748725      12.00063225
Pd       4.11777592       9.66324146      11.95099537
Pd       6.89476706       9.64088005      11.95142944
Pd       9.64982872       9.59779534      11.89439304
Pd      12.42487279       9.60955999      11.94161946
Pd       1.34928246      12.40058094      12.06549169
Pd       4.08237605      12.36692690      11.99616628
Pd       6.86816975      12.39901143      11.97280504
Pd       9.63028672      12.36702810      11.91406436
Pd      12.43005134      12.34586110      11.98998665
Pd      13.63530596      13.73250178      14.20898054
Pd       2.71588997       0.05312816      14.09148641
Pd       5.52813532      13.58549477      14.00176753
Pd       8.26417819       0.11565104      14.00168926
Pd      10.97263250       0.07333277      13.77135326
Pd      13.74074742       2.70830784      13.88139924
Pd       2.69771579       2.82918138      13.98089846
Pd       5.48179421       2.59286689      14.00026307
Pd       8.28696060       2.77416001      14.03676652
Pd      11.02696703       2.74082567      13.97889804
Pd      13.73080933       5.50946242      13.93250134
Pd       2.69481139       5.57029501      13.96073817
Pd       5.43701290       5.49692410      14.13604414
Pd       8.24602468       5.49467435      14.03659585
Pd      10.95258802       5.42313117      13.96965689
Pd       0.02812883       8.34110195      14.02330853
Pd       2.72870951       8.27102050      13.89979448
Pd       5.44718740       8.23829234      13.98027355
Pd       8.36787523       8.24195204      13.81990011
Pd      11.05678072       8.20317764      13.92569298
Pd      13.52098001      10.98273576      14.61599439
Pd       2.69346170      11.03911749      14.02399262
Pd       5.54480798      10.90217141      13.95093311
Pd       8.31772856      11.02549781      13.94955603
Pd      11.01546652      10.89998756      13.84337919
Pd      12.26028222       6.52188705      16.13948708
Pd       8.65876658       9.62288478      16.27333599
Pd       2.04396485      12.78920680      16.63632339
Pd       1.23017522       6.75024083      16.17677767
Pd      11.79980269       9.35830683      16.30189185
Pd       7.87775521       1.26717107      17.39989444
Pd       5.32250065       0.47754208      16.65134321
Pd       5.49888369       9.56000900      17.02740491
Pd       4.34053791      11.76028408      16.11126888
Pd      10.73445574      12.47476772      15.94074181
Pd       0.02705054       4.03739122      16.27778837
Pd       3.34640355       4.31428063      16.27400386
Pd      10.45848207       3.20373222      16.67984014
Pd       2.87985385       9.48286622      16.27891842
Pd       7.18722899       7.13332754      16.93545427
Pd       6.93033986      11.84207624      16.26202098
Pd       9.62551573       7.06856408      15.99336371
Pd       6.95653895       3.57541306      16.44189720
Pd       1.23672348       1.60019506      15.93903034
Pd       3.92343837       6.99877244      15.96847060
O        8.60228811       3.11233414      17.41634102
O       10.33493981      10.54786321      16.82332524
O       12.73402992      12.57970655      15.70557004
O       10.85271539       1.40418191      17.51975379
O        9.94392024       0.45542571      17.29930625
O        5.14139719       7.55519323      17.39165976
O        4.26882747       1.19825642      15.11867804
O        2.47966521       1.66334678      17.49168172
O        8.76225413      12.51361297      15.46429996
O        1.48562452      11.03343462      15.84644056
O        3.08894108       0.43953392      17.62566889
O        1.63608110       4.94185802      16.96034668
O        7.08289634       5.54452167      15.76225671
O        7.38964165       8.91047815      17.79445719
O        5.15928210       3.87307827      15.59461202
O       12.19225531       2.97379917      15.76356750
O       10.67507881       5.25980228      16.10237150
O       13.42843333       8.15310907      16.09383952
O        6.81286633      13.39815652      17.62418999
O        7.03467974       8.58659948      15.28006988
