75
algorithm=ssw size=75 seed=0 index=0 energy=-277.9178483656908 entry_id=0 visits=2
Ar 0.783093933161277 0.829791188063039 1.320884951694112
Ar -0.4111183863480756 -0.550542409995375 0.8165222316719599
Ar 0.9291084710561944 1.600009626316826 2.11983614510613
Ar -1.219640436296194 1.336413733072923 0.04833873232295419
Ar 2.242091971915655 2.443484943537238 -2.078697600929035
Ar -1.462715029708144 -2.883995180197298 1.765934757834442
Ar 2.252030319396798 0.3498889498113759 2.87882900956565
Ar 0.9660601592677458 -0.09644505435561011 1.833817285691456
Ar -2.720094219568368 0.8314655350066659 -2.242962310983861
Ar 1.933850789979035 0.3507402596347987 -0.9888000236130123
Ar -2.138291414111838 2.002966004813286 0.1352885098657763
Ar -0.3741224916863949 -1.537294339565102 1.327873380375392
Ar 0.4901402126681256 0.6508675853857985 2.430974955982082
Ar 1.691792155148722 -0.5582430178638662 0.2771510030336731
Ar 1.04281540156932 -2.198501484255215 0.5540127866927922
Ar 1.788521257754429 -0.7181891446199544 -0.8257657403144734
Ar 0.007053756080870573 -2.383539340612175 0.7914346563360897
Ar 1.394523924267854 2.506526256760427 -2.880451629445588
Ar -1.174041994102004 -1.775813579436678 2.022251578549188
Ar -1.992347758586872 0.06038347829008298 -1.809111764154817
Ar -1.051201751933365 -2.238616318690261 1.017332177776322
Ar -1.673429097346702 -1.891892236297809 0.2254363834077609
Ar 1.320031057514837 -0.9390811651233817 1.239001092129995
Ar -1.819547323692029 3.063912077866106 0.2935226051265286
Ar 1.675650376003238 0.1862218248115809 1.062029074542046
Ar -2.47691270697158 -0.9399377109632405 -1.865128456781637
Ar -0.7762836077411037 -2.606722955327465 0.03735972832724566
Ar -0.3497849278649486 -2.513487674697601 1.83864503836085
Ar 0.4251725622758148 -1.279579643595619 0.6115005678724348
Ar -3.392579061073549 0.6271213786267582 3.615187613666112
Ar -1.802667975414867 0.5274552634713234 -2.800923725124216
Ar 1.14377598449324 -1.379763123766397 -0.1882830807544358
Ar 0.6561139254975772 -1.867813894705257 1.558581385221159
Ar -2.519700784461996 0.7788734425194012 -1.15066331613502
Ar 1.234382957525897 1.900694338806771 -1.900644023358136
Ar -0.1279760203970272 0.7556356614901925 0.7140763275701327
Ar -1.209750430574418 2.38667809733447 -0.3596771555612631
Ar 2.435652339890104 0.5006743244970219 -2.06774231574348
Ar 1.063189988113546 -1.088094100588741 2.320262692398843
Ar -0.1314334151029104 1.282723816987526 1.728788885710026
Ar 1.234417667556371 -0.09528372108884174 2.873331383786757
Ar -0.1448189317087512 0.02033115078954483 -0.0811402294710019
Ar -2.047319025456366 -1.98919967595246 1.313659763237901
Ar -1.83346967174558 1.605549550569954 -0.8567447077319489
Ar -1.343755818925687 -1.156095679740314 1.067372667046174
Ar 0.6476815133875817 -0.1704659621741446 0.7512063868395945
Ar 0.3176440806261812 -0.814006770525562 1.584013590439389
Ar -0.7370715852086407 -0.6953191708642661 1.914031700762961
Ar 2.209565267269455 1.42066191417572 -1.500673816574823
Ar 1.635195612137412 0.7235636643343799 2.047194863954168
Ar -2.609747758648198 1.775866855289802 -1.64893538519627
Ar -0.06454703287616434 -1.505639749939016 2.366765880578417
Ar 1.335374902352292 0.7695978742183036 -1.925039422579496
Ar -2.922031273573332 1.658979968103357 -0.5850209878876244
Ar 1.319510350014843 1.014506138809635 3.053298580938077
Ar 1.940432124307403 -1.578789375318315 0.6246475493935602
Ar 0.2416494793723818 -2.064858790833552 -0.2200415049867949
Ar -3.492602812945768 -0.8366712136523041 -2.334660718882358
Ar 0.04139738367009758 -1.008162134588718 -0.3864105195031491
Ar 1.96404724262396 1.488111514521636 -2.625438812040857
Ar -2.251156016401755 0.9133748477669718 -0.0801732814200956
Ar -1.218939407911053 2.216510344739035 0.7454983710049343
Ar -0.08236663314563138 0.1628398866491083 1.628826735603775
Ar -2.650164345079487 -0.1921221810728706 -2.679569127688262
Ar -2.237953301090913 2.47176767216672 1.145750396070127
Ar 0.7903257558282168 -1.0819076655974 -1.184164068649029
Ar -3.099784682820815 -0.03090434001910357 -1.658192391780675
Ar 0.8667783201882948 -0.2974712609167446 -0.3597019251225315
Ar -1.722426611611157 -2.971607496183039 0.6321978350848356
Ar 0.183577413069484 -0.4145849248695079 2.572443810694359
Ar 2.406722457812801 -0.6688762879553795 1.101439436469138
Ar -0.6695843317762102 -3.252314282102101 1.002848891355012
Ar -0.6182181647085583 -1.535073041147199 0.2909669185164679
Ar 1.973306924820935 -0.3929645099893653 2.070213357861332
Ar -1.716247103469975 1.134344313401303 -1.857034893227222
75
algorithm=ssw size=75 seed=0 index=1 energy=-346.645945505852 entry_id=1 visits=2
Ar 0.511508265873132 0.7564919181797545 0.2621555181713839
Ar -0.4993410114926774 -0.9484728047758421 0.9298794029707326
Ar 0.6537978431349856 1.459647793631251 1.045693291561379
Ar -0.8193051442768203 -0.08347214252156131 -0.7033086023140831
Ar 0.03037159743126489 1.76424613932485 -1.564561223997157
Ar -0.2154845100863386 -3.315659795607426 2.025349362863706
Ar 1.102195052754014 0.5909059964874011 2.633476883087811
Ar 0.9065760355697322 0.2033337442547366 1.111785295915129
Ar -2.039287134301382 0.9703756479912075 -1.677392091062575
Ar 1.27636191121187 0.8744001909460575 -0.5835877742191422
Ar -1.393122604232258 0.7056737322362204 0.9258708319572881
Ar 0.08553435668042747 -1.750387961474959 1.306486296612881
Ar -0.1115426891691304 -0.05738880909569873 1.380154830967771
Ar 1.207273644724795 -0.03300781971161893 -0.04011498447854015
Ar 1.106269446181912 -1.853474747416213 -0.1947843948211708
Ar 1.108414077462547 -0.1156833083667212 -1.153831858322351
Ar 0.3555407718628187 -2.461642367506717 0.4782981143773181
Ar -0.7025553425314492 1.734066055528743 -0.714474676336938
Ar -0.2306736348445068 -2.17913248103577 2.234763316892597
Ar -1.110604464119113 0.1627757375483074 -1.757007544574263
Ar -0.4353599745728743 -2.632155771786864 1.228806657944602
Ar -1.4440032719879 -2.552368799359591 0.8723140343579596
Ar 1.321415119529468 -0.9670138272236788 0.4402823062211779
Ar -1.001352675391996 1.729041841598602 0.9301240647985503
Ar 1.542909561891872 0.9021383467099268 0.5297862639059222
Ar -1.926902752526019 -0.03512859232826819 -1.058130173292488
Ar -0.5950767625615979 -2.998492884686847 0.2248680141866201
Ar 0.5999501484639357 -2.65109216391408 1.607166805772547
Ar 0.3323731717959423 -1.378790789116144 0.3620474445215058
Ar -6.41262832210033 5.376494241840553 -1.110962028349942
Ar -1.441117271189189 0.8007155834033839 -2.586070825902115
Ar 0.5443393735866573 -0.8636266173655617 -0.5557058407245382
Ar 1.115995393664792 -1.860723895486482 1.012471970883351
Ar -1.313731034356611 0.8470605157221832 -0.904245677990383
Ar 0.2265748489391805 2.357084392774728 -0.5954605129289584
Ar -0.2988049632339566 0.8809943735499263 0.9234060516417129
Ar -0.1118686455304561 1.738679957308059 0.2759085401451546
Ar 0.7086550837543926 0.8341959564385905 -1.531597021856806
Ar 1.635241717066073 -1.01558780443263 1.507979432528826
Ar -0.8098405736669564 0.78136367231438 1.854748442336933
Ar 0.6711197944473718 -0.302434794739227 2.145680728620089
Ar -0.7649518154414884 -0.04116061152800313 0.4612559026485539
Ar -1.198096580006926 -2.744676712131447 1.975143293166444
Ar -0.5568434308890774 0.8143392930589717 -0.1309883795119474
Ar -0.9902813125456975 -1.725041817965592 1.524994876419932
Ar 0.2572746102902388 -0.3069342713613439 0.3723806856630301
Ar 0.6102431260869714 -0.8373010760375305 1.237074427896063
Ar -0.2334640407169686 -0.9838797703875972 1.995381341881059
Ar 1.072407414169584 1.831428939520106 -1.115489961688289
Ar 1.431446472602966 1.015557187814671 1.646648165117604
Ar -1.779870202490446 1.823503613186757 -0.9898048701188553
Ar 0.7813258743752106 -1.50820052605606 2.086168092680984
Ar 0.2781694607016331 1.279366285478508 -0.6295940799209966
Ar -1.491054195501962 1.381966831252507 0.0170582099081067
Ar 0.339982403445408 0.7735573448786877 1.869542384509302
Ar 1.642396123086679 -0.9174310644125592 -0.5971506131529345
Ar 0.002047512480262055 -1.939950978173064 -0.4853920824382568
Ar -2.903420179543605 0.3469161369257324 -1.399365547627463
Ar -0.4963013194855296 -0.953693501123007 -0.170518806015916
Ar -0.339397739076251 0.7456065001327276 -1.303448455450478
Ar -1.653790158388278 0.2789637200470287 -0.04580564405131133
Ar 0.9876644710396176 1.757381283225407 0.03169067950545836
Ar -1.144734740382833 -0.2585288721042752 1.528880248057794
Ar -2.131471130934851 -0.01001598174329426 -2.158506122374731
Ar -0.205722279675825 1.707713200713154 1.674952596358728
Ar -0.03593871043697156 -0.3253440095217254 -1.471169319563805
Ar -2.354192254163571 0.9316144469370012 -0.6032936088684321
Ar 0.245892478279041 0.1932705046084589 -0.5829130853529583
Ar -0.9664376653992314 -3.5557780282914 1.175856861762051
Ar -0.3261688729300211 0.01978382723474588 2.453250751249861
Ar 1.904389344029433 -0.1233924411254973 0.822853817724277
Ar 0.1622693647601962 -3.475982093052062 0.9483188914012931
Ar -0.631635105516982 -1.90565231426206 0.4389354516479362
Ar 1.690712943943785 -0.005065192606164644 1.898431847865798
Ar -1.035429603089634 1.451775360484482 -1.764857880571985
75
algorithm=ssw size=75 seed=0 index=2 energy=-346.6459421415698 entry_id=2 visits=2
Ar 0.9986911936041551 0.4411839505208252 0.298484847775184
Ar -0.3661670910349845 -1.000272864673983 0.9570444283378092
Ar 1.261379368454214 1.115911223937694 1.07586684404023
Ar -0.4489564731540828 -0.1232627517706464 -0.6988477028767627
Ar 0.7944641448666403 1.487232102320569 -1.558330389671249
Ar -0.6170879391262019 -3.350064295094284 2.097047306103854
Ar 1.470093659324742 0.2075613360717668 2.690814797890583
Ar 1.243463960360099 -0.1634779735664212 1.169301728839075
Ar -1.391037745312073 1.140889407090433 -1.729690395210335
Ar 1.796367027167503 0.378390477227213 -0.5224096425694219
Ar -0.8934849442297033 0.8035220585185329 0.897817982796192
Ar 0.02636124025257204 -1.898183084263518 1.365281136509158
Ar 0.1857695329269673 -0.200205701309729 1.406848040271758
Ar 1.522496979189748 -0.4825627045972266 0.03192609573228917
Ar 1.047453603916399 -2.244741199165162 -0.09885096622631012
Ar 1.442033648210113 -0.5668885312345258 -1.083163257795601
Ar 0.166180827537969 -2.668007384343364 0.5575098323761479
Ar 0.0461899710830322 1.629200616493423 -0.7332621898221342
Ar -0.4002986102028959 -2.231108563737135 2.288669250780862
Ar -0.6503427869080329 0.1552113679653342 -1.765368416887235
Ar -0.6650235593640883 -2.653259184063417 1.283301919899914
Ar -1.623461387759792 -2.372479518238872 0.8916680060431347
Ar 1.424305151024912 -1.409208933550417 0.5298217802300329
Ar -0.2964357762873662 1.722374176558284 0.9000464828972986
Ar 2.029210474653811 0.3741337217626196 0.5988257188220801
Ar -1.510837014543896 0.147915645611996 -1.091971019127229
Ar -0.8677314634782813 -3.000003072526034 0.2801653996318844
Ar 0.3315518275636231 -2.879645246741341 1.696791421635778
Ar 0.3737693697061353 -1.606958469881664 0.4243148089762419
Ar -28.51036472726384 17.1940380598199 -3.267279481618779
Ar -0.8143528454247301 0.830032091835904 -2.614633993027768
Ar 0.7163154771055349 -1.167502203762597 -0.4933430500766778
Ar 1.019214134261298 -2.227642386226968 1.108060894083627
Ar -0.7311395059215451 0.8854403538658644 -0.9305116978407559
Ar 1.081123028950756 2.046926257834783 -0.5920812875448047
Ar 0.2128736029439058 0.7463852007261842 0.9299314127544078
Ar 0.5946409195560906 1.531863595325869 0.2764077831441069
Ar 1.261702630185414 0.4370860933831721 -1.488509669590593
Ar 1.688811097380853 -1.499023415018782 1.608149427285686
Ar -0.3354963819528018 0.7759827851583717 1.844744468120514
Ar 0.8762932406248829 -0.586443856937113 2.202150643198945
Ar -0.4219336799806714 -0.06793442497719114 0.4660784243305197
Ar -1.456456643247097 -2.587801605696564 2.004972145516778
Ar -0.02158880926826644 0.7121988342307178 -0.1315018005678416
Ar -1.026403676029556 -1.644075662476194 1.546804013270274
Ar 0.524271795585875 -0.5430443754782412 0.4160380698252173
Ar 0.7324750810004027 -1.116464196515875 1.300033020253058
Ar -0.145746900317089 -1.067249893860314 2.031391745185026
Ar 1.813439734835951 1.345141906645658 -1.075127318339901
Ar 1.910470774231075 0.5325808962368107 1.709502438071838
Ar -0.9796435095190836 1.93566203700713 -1.046393218607929
Ar 0.7336885322621352 -1.789693834992486 2.164389306468473
Ar 0.9069039562123136 0.9816844498770717 -0.6083967947705676
Ar -0.8202383429171324 1.465468214992207 -0.02384164484093288
Ar 0.7862470104623349 0.5286527894779689 1.898844513696976
Ar 1.779503458397955 -1.450154799758964 -0.4967884679392756
Ar -0.04114107019283997 -2.105097340008293 -0.4253308419314342
Ar -2.3747721481638 0.7182851143408789 -1.472219015687098
Ar -0.3311482396929017 -1.029962597881848 -0.1424227943724714
Ar 0.2118851671017263 0.5740277977744862 -1.294843706294913
Ar -1.208350714375628 0.4197035716587579 -0.07570992240620783
Ar 1.680517073880458 1.315340755666655 0.06943115340755743
Ar -0.8706294577358891 -0.1779749858333667 1.523375530607789
Ar -1.672101119190116 0.1911933756824089 -2.198939786347974
Ar 0.4543060392851587 1.551649538685548 1.671713172386815
Ar 0.2890921474750509 -0.5401992739437581 -1.435829114215936
Ar -1.739407661058205 1.192027659846788 -0.66645038027716
Ar 0.6464855886195688 -0.07245778473008276 -0.5465209738175937
Ar -1.375838656720593 -3.4466160524302 1.226310056926767
Ar -0.04032533877811988 -0.05659594844642482 2.470706050697579
Ar 2.158966853019892 -0.6975915182498506 0.9193463296056812
Ar -0.2491324769537988 -3.609150122398844 1.035962782065456
Ar -0.6810637747211815 -1.919206327931502 0.476355529168566
Ar 1.942463746159054 -0.5140021987825925 1.985120525217497
Ar -0.3064979020214077 1.399979694399495 -1.790009583748661
75
algorithm=ssw size=75 seed=0 index=3 energy=-358.7257280564408 entry_id=3 visits=3
Ar -0.3972895617418485 0.3094098085341857 -0.003388960174433148
Ar -0.1676471654633476 -1.868547946505234 0.01723814896232035
Ar -1.382016014448333 0.7206625916783401 -0.1848058190115074
Ar 1.25387537153403 -0.3437117046814165 -0.4578863198242872
Ar 0.2800165672201612 1.062722930248767 -1.895944434998473
Ar 0.4197722308476809 -2.375474236178789 2.605600011784508
Ar -1.953408284807673 0.3165361808802248 1.502202936572917
Ar -1.13802300508762 0.2823495951455472 0.7960065592309251
Ar 0.8176845752382514 -1.633468615206514 -2.081442521962286
Ar 0.1996185799076407 1.480412855281027 -0.1645450375284344
Ar -0.8974163183354046 -1.827596509976224 -0.7971190677896501
Ar -0.07941618291330652 -0.8337064127121592 1.645901337613128
Ar -0.5411833043251941 -0.6626512359878556 0.7039559870651817
Ar 0.4915714218876476 0.8001779647203211 0.6320789381249764
Ar 1.684924853976129 0.0412257204712397 1.502143761334639
Ar 1.28021493526305 1.298008714825058 0.02084894694715589
Ar 1.245533628293536 -0.9943598608893128 1.743819825607059
Ar -0.3721199891934343 0.1806801815739828 -1.820578983856784
Ar -0.403163926283425 -1.683982956273755 2.333885192496071
Ar 1.912002178597275 -0.3530519167773902 -1.321723688284242
Ar 0.4570516096946339 -1.761572789069007 1.68775562983242
Ar 0.3782938499352694 -2.385863826417196 0.7988981789090225
Ar 0.7610175551432118 0.6473080425514506 1.703249616935499
Ar -1.567793034022906 -0.9829392170914025 -0.8141130985291245
Ar -0.6045578526473443 1.195283919504143 0.5652511679517263
Ar 1.72824663519416 -1.298830734738671 -0.5388302804614762
Ar 1.355889111919419 -1.869702490813741 1.108684962528462
Ar 0.5640582648929497 -1.258331682270756 2.635163327336906
Ar 0.7300250104538403 -0.289338243977429 1.156587131194017
Ar -20.36235806464544 20.02084213601748 6.174676614810661
Ar 1.311434489445684 -0.5817117330187216 -2.247026899707078
Ar 1.382515999780613 0.2256874217094353 0.4274001912378621
Ar 0.6160862718001625 -0.2518797226803743 2.25788730370452
Ar 0.9732486372410741 -0.9092672822808866 -1.289240460207334
Ar -1.222826725051618 0.9598018303115373 -1.289114900036957
Ar -1.302686517229981 -0.3628113853380534 0.005393434006372566
Ar -0.9288356681525251 -0.007377927772877687 -0.9050311426908665
Ar 0.9009340723577405 1.315928997191391 -1.040255717782742
Ar -0.2109202236351047 0.4761754261879876 2.257797696338972
Ar -2.24470889360657 -0.8803606353571919 0.05777768019883293
Ar -0.9840326731515754 -0.1740656015910304 1.777598884266927
Ar -0.4646456125641318 -0.9041525477905403 -0.3705182358806169
Ar -0.2257594243865425 -2.607719815181925 1.714040322874763
Ar 0.1483817176599432 -0.2855052123145846 -0.9420246784872375
Ar -0.4904432459955453 -1.725909978494798 1.07898123872682
Ar 0.3799234377772723 -0.3402767549874577 0.1864194150752165
Ar -0.1776721590651888 0.2426314023782247 1.206729857226473
Ar -1.169425180167971 -1.227096955159385 1.7473129356386
Ar -0.0581794935479024 1.864357685333374 -1.194903493200549
Ar -1.72102860902613 1.184835597218411 0.7737594801028308
Ar 0.2140390436470287 -0.7142713309501038 -2.003833635029168
Ar -0.3922100350655424 -0.5928198946240754 2.640211565411143
Ar -0.1982532976784236 0.8085757951818218 -0.945970547012028
Ar -0.73086243713938 -0.8691395564601508 -1.494665347822969
Ar -2.162511748772941 0.1904249048018166 0.407894252004597
Ar 1.5130065776719 1.09687449037444 1.074632826281899
Ar 1.386778512595434 -0.9043083960378333 0.481705747967021
Ar 1.040815418259041 -1.987647131055293 -1.04060474556276
Ar 1.120001038709824 -2.031743372149984 0.07218922819099258
Ar 0.9348848522842719 0.2219275255364823 -1.449594243536117
Ar 0.61034931856527 -1.207663609194026 -0.3412759617019823
Ar -0.8387075996237249 1.603254179843466 -0.4558511349398043
Ar -1.211060290075157 -1.424439588789478 0.2455076065447028
Ar 1.839774442601732 -1.432214469025265 -1.655482425370014
Ar -2.039035662883506 0.01356735033436395 -0.7069482577178001
Ar 1.704573231535201 0.5985818925682143 -0.7209230717925071
Ar 0.06888362002522846 -1.513145094778587 -1.20861828201353
Ar 0.6477090001934548 0.5106800573652097 -0.3889400203125474
Ar 0.9106109427926711 -2.76385446725901 1.676867015160356
Ar -1.656102049301135 -0.6521558998087003 0.9805865225942509
Ar -0.01729730782777455 1.343280044088551 1.469203084659928
Ar 1.387213515310197 -1.94827670221173 2.255600503695293
Ar 0.4216914315739538 -1.271925295491687 0.7365249051663996
Ar -1.015239551845423 0.9374600012993002 1.630888969373186
Ar 0.5530198544165704 0.1938683696683639 -2.496868787634584
75
algorithm=ssw size=75 seed=0 index=4 energy=-358.7257284562329 entry_id=4 visits=2
Ar 0.7970395336065464 -0.2373745410287828 -0.62682126624113
Ar -1.088708106363195 -1.058414478502887 0.1257950731787011
Ar 0.8069674332395915 0.2053267919845975 -1.614559878128779
Ar 0.9265043399970023 -1.590635205653646 0.6024667203760797
Ar 2.02976699363645 -1.850728679664618 -1.323490091682021
Ar -1.701189844606038 0.6268881985868744 2.147210813601626
Ar -0.03671869937277683 1.718488536432708 -1.036454831499124
Ar 0.360236126668626 0.7513455154547545 -0.7684081004963317
Ar -0.1730237194236255 -3.157206704681188 -0.3067137091504573
Ar 2.118476498560058 -0.2508791886456475 -0.5416814466417502
Ar -1.219137165887462 -1.377594549758787 -0.9127285609934248
Ar -0.3587550132646977 0.5868368630134102 0.8267235230484867
Ar -0.2462283218597221 0.08315360568289051 -0.1024529983339771
Ar 1.498911521286761 0.04043817547809691 0.3032254678865506
Ar 1.153956492462674 -0.04960937757831324 1.925047638791018
Ar 2.353260086245961 -0.657475938044161 0.4657294620701315
Ar 0.005632783113544431 0.003270595962583659 1.974924608337754
Ar 0.9611302661780063 -1.78507371893052 -1.573888786913179
Ar -1.359869832741879 1.015090742503016 1.166360301742029
Ar 1.307213054638169 -2.606506054373838 0.65241409359484
Ar -0.9932808097454999 0.06216777540733492 1.514221883720982
Ar -1.457701881161408 -0.8417226694595805 1.12258814031577
Ar 1.307321526285936 0.7448446087694396 1.146140303049595
Ar -0.7165602992748188 -0.798880492061268 -1.671448549010283
Ar 1.433036894895013 0.6230835444781041 -0.705787113259738
Ar 0.2609727303938926 -2.196826133500433 1.179884023800129
Ar -0.6491503212125714 -0.8637485358545028 1.937436845649298
Ar -0.6362586316110544 0.9604773337956543 1.991550356111749
Ar 0.5277333765074098 -0.004876438608823809 1.061112515857982
Ar -37.92016238808269 27.74412198870801 19.03767754719614
Ar 1.000190210853764 -3.167001273445922 -0.2753669030761325
Ar 1.361444844503262 -0.7311296518426944 1.045850913088952
Ar 0.3525013433991452 0.9650197612816153 1.566895188450305
Ar 0.4268013273376037 -2.334564469571077 0.06709100279252159
Ar 1.251224508788906 -0.6948000890991782 -2.157218642377285
Ar -0.1717890193868757 -0.03922396272007251 -1.168879922418426
Ar 0.4339316767338205 -0.839802294403898 -1.464111053990969
Ar 2.377489256269417 -1.348542363148315 -0.4241841555827168
Ar 0.6849808701315891 1.590473823565702 0.7229421894294308
Ar -1.021435542261303 0.2636107173779234 -1.755741191850036
Ar -0.1386324910125568 1.333474471263389 0.01116258128747154
Ar -0.2745977652917305 -0.9159618231087244 -0.5710348838067911
Ar -2.034268445155292 0.1135609646387073 1.203294222837174
Ar 0.6138175098541424 -1.459725916279939 -0.5572036645199032
Ar -1.24545708620714 0.01038278261733321 0.4171648494186184
Ar 0.4877135090225601 -0.6576580946963938 0.261916980668959
Ar 0.6430376160215099 0.6330971500887685 0.2309179822721247
Ar -1.161671163758849 1.039797870991263 0.1174951247662859
Ar 2.517874412342378 -0.8495522004123719 -1.412055266611819
Ar 0.9505895758221322 1.304965484478524 -1.475441341969691
Ar 0.4094582459933148 -2.50643996430216 -0.9794303866500135
Ar -0.4124984577142933 1.628703929276362 1.063594795421128
Ar 1.468613975255838 -0.9355149654262057 -1.11550634522266
Ar -0.1807583051754005 -1.70509658733222 -1.410197042567044
Ar -0.0707398612446366 0.87338126444746 -1.772445326712612
Ar 2.106117195974409 0.03339499030288477 1.282252518096638
Ar 0.3311143333949395 -1.068556821856305 1.369056997443419
Ar -0.5606508992628895 -2.523964150422699 0.5343360285177123
Ar -0.7348295410027085 -1.661090850262495 1.221108008152994
Ar 1.460570685690552 -2.068280162444367 -0.3418192613749082
Ar -0.1284416671323406 -1.488973720093585 0.3770186247962215
Ar 1.862174279669599 0.02921721012767774 -1.558502744466277
Ar -1.133323684072348 -0.2410926639403309 -0.6915458125766605
Ar 0.3504819260701278 -3.21035024565023 0.6881203123754065
Ar -0.01604656501318002 -0.1587906606865225 -2.242544434897351
Ar 1.997952148041053 -1.697432695547938 0.5741228967830416
Ar -0.4904081152501962 -2.054913914291542 -0.4521242425896676
Ar 1.450522195985632 -0.9675821756859517 -0.06036722124387323
Ar -1.720364424181558 -0.4927156725085171 2.125709802669149
Ar -0.7191520608549781 0.8273955085543615 -0.8387339724935743
Ar 1.664793482352383 1.145040382829678 0.2203960282194359
Ar -0.8790523561967173 0.03752871339201239 2.613786523757285
Ar -0.4219655119599193 -0.5383396119503052 0.8368511479286352
Ar 0.8780829758871723 1.600963024554321 -0.37949857514807
Ar 1.440024930171766 -2.762229745113107 -1.214417572181759
75
algorithm=ssw size=75 seed=0 index=5 energy=-359.5558776580132 entry_id=5 visits=3
Ar 0.1586061235841671 0.01315233220237019 -0.3356215382334343
Ar -1.185245152831398 -0.215161456598513 1.08837031119878
Ar -0.000256547467313607 0.5487091207742519 -1.370159714635981
Ar 0.3114617112318624 -1.96661795532017 0.2252839811582454
Ar -0.09583567138519895 -1.442595484478141 -1.550792981434124
Ar 0.21824068765989 0.6471058882154636 3.027137927939287
Ar 0.5850158476279648 2.087142324426011 -0.5798994396282209
Ar 0.3806626422951322 1.049777487345345 -0.4898212151783945
Ar -1.85648885794956 -2.101612861535068 0.2399197368397356
Ar 1.359585755654707 -0.6354203624784194 -1.397435377499145
Ar -1.91435284048907 -0.06402870767940333 0.3047730007178864
Ar 0.7123667690131097 0.6916069140211938 1.178322912090146
Ar -0.06790225327147893 0.7105760533449947 0.4463026596095225
Ar 1.105497363174434 -0.4974283458539154 -0.3178585618654275
Ar 1.535580533127441 -1.066076225041244 1.351459566490135
Ar 1.656201765822425 -1.404492166871495 -0.6675563193017588
Ar 1.306696356449792 -0.02904413544695035 1.729679609668112
Ar -1.108682122057047 -1.036168165902027 -1.525176086006478
Ar 0.002767529278558343 1.265321597920589 2.116323706060377
Ar -0.2084227723048319 -2.894886084663537 0.1111989154673129
Ar 0.2370221107727919 0.2127269278984388 2.003856829477257
Ar -0.5669860574990153 -0.5159469426861539 1.91171915166341
Ar 1.853160220781001 0.1759000758227632 0.7972079811242571
Ar -1.642923812426204 0.4870995603089346 -0.5894448618664093
Ar 1.02446520669933 0.3422648654204768 -0.9786307851788323
Ar -0.2823577832655932 -2.236122690186563 1.089993504056425
Ar 0.5593401394791888 -0.7960704917767115 1.994104403861434
Ar 1.019186064073865 0.9001766147475234 2.302872716979504
Ar 0.9490007821048169 -0.4025190049735905 0.7610931878428416
Ar -21.47850702144174 12.75415198198743 7.661354391230607
Ar -1.13703074552976 -2.681681959762924 -0.4592564436517664
Ar 1.18996031826706 -1.388899356793697 0.3122708339069244
Ar 1.745095989648471 0.9884234958022892 1.517228499072534
Ar -0.7557161830723335 -1.867722975087876 0.1798026636827763
Ar -0.3527364115018027 -0.3294981767849595 -2.046859810388563
Ar -0.620689407547562 0.7416869513443087 -0.4681118163759815
Ar -0.7305866094773896 -0.1464992464045393 -1.029418591392113
Ar 1.005565278209479 -1.707770620863661 -1.541508840533103
Ar 1.778357815447805 1.207906402650886 0.4565579807533008
Ar -1.304435188144506 1.557146483952794 -0.5665423220064989
Ar 0.7280093840978935 1.527406159021107 0.4115164455332251
Ar -0.7842690253437595 -0.2296822990044841 0.09187833150016755
Ar -0.7215629634775237 0.4268872904490484 2.485283805977497
Ar -0.5202347330752047 -1.091911506735818 -0.5751862123591802
Ar -0.5931589521061783 0.6480947351858294 1.415910546092456
Ar 0.1559478234181439 -0.8874413470854093 0.222863291419639
Ar 0.9985294902616842 0.4874690133979147 0.1615307430504898
Ar -0.134221705235981 1.58562347597847 1.083633243709796
Ar 0.6098437896493638 -0.9148550517233817 -2.205302680564308
Ar 0.7636259174338959 1.327174619648175 -1.467032774275862
Ar -1.44037765202361 -1.65513561051202 -0.6552554635324814
Ar 0.8817070605387788 1.702178969513182 1.520252540412684
Ar 0.3110933472413417 -0.496665144007287 -1.227449825217278
Ar -1.60155348631604 -0.5985469384348506 -0.6112966934620969
Ar -0.3084555851043386 1.597407594078385 -1.117883632037241
Ar 2.026307205705995 -0.7220720781232624 0.2188248452714211
Ar 0.4766419923318276 -1.391984926201466 1.128119149088033
Ar -1.32736135997788 -1.842288435504999 1.183859274368625
Ar -0.2653890684550015 -1.557089260316751 1.95169376971463
Ar -0.1825112616080667 -2.15504298348163 -0.7209465129481933
Ar -0.563042859591018 -1.126596379057356 0.9724985619062541
Ar 0.7675005202497499 0.1520520513763326 -2.021394095597632
Ar -1.167562904077769 0.7596675675896345 0.4587846224095238
Ar -1.140930498746396 -2.808296789351292 0.6696334864132887
Ar -1.059634667431796 0.8344634736971842 -1.46595836216915
Ar 0.9697123575617437 -2.329349570761709 -0.5768895027985378
Ar -1.454316435420194 -1.067166093028405 0.3566041550350817
Ar 0.5486544886619196 -1.34717416020279 -0.6444158219292845
Ar -0.06096864491556936 -0.42798709804967 2.866597632548295
Ar -0.3407928411122845 1.694741257206112 0.00665024270512467
Ar 1.928991056207721 0.2706845139328344 -0.3259165030654864
Ar 0.9917795246843751 -0.1130496449160437 2.772334093405765
Ar -0.04721020850960601 -0.1881953133648115 1.020086012631385
Ar 1.421257433597003 1.284790127810587 -0.5574222919287234
Ar -0.9538934152682558 -2.15405900658426 -1.490155446189233
75
algorithm=ssw size=75 seed=0 index=6 energy=-359.5558776042349 entry_id=6 visits=2
Ar 0.9072579037762872 -0.6320263825843289 -0.1142919097829139
Ar -0.4601296039955758 0.4237397462155663 -1.063686801340562
Ar 1.858075909368087 -1.135712253477267 -0.5882178752714771
Ar -0.896866142453437 -1.369638197377519 0.5629251211113464
Ar 0.3903877298847232 -2.465185764030199 -0.2959674313375906
Ar -0.4770923462567595 2.439406776196852 0.4883366080282542
Ar 2.773961930302012 0.3937017193754211 -0.1934035176601921
Ar 1.860936053151566 -0.1454179423786222 -0.1517879198499726
Ar -1.637591379533846 -1.356805835265214 -1.479047024892354
Ar 1.35059974049127 -1.915401512207651 0.9566579503765619
Ar -0.1133516340896504 -0.08671832750610697 -1.951178668793514
Ar 0.7409444296443294 0.9654134917495349 0.5780770146575057
Ar 0.9415983271151441 0.419442310243041 -0.3200951209097528
Ar 0.7762610171966901 -0.958166260493296 0.9026086219663134
Ar -0.4788318627522931 0.02431384595023073 1.771148188920977
Ar 0.4303357463604545 -1.800485342416591 1.550036529761647
Ar 0.04486687740140157 0.9549525007553575 1.409899672529979
Ar 0.397226444557184 -2.163979442978302 -1.345222446694674
Ar 0.4516993490840857 2.086373137050863 -0.03214543190539293
Ar -1.701917085336799 -1.995436147123903 0.2385078845034841
Ar -0.2320747462507695 1.359257373104048 0.3912413005798077
Ar -0.9772570473336567 0.8808792381577482 -0.2425757485651964
Ar 0.8866182111866915 0.3092459380723247 1.700856825229188
Ar 0.8951892324196778 -0.4848280015867065 -1.988515160535422
Ar 1.774744546715704 -0.9836688891275271 0.5144641054866562
Ar -1.764145811841058 -0.8149773279718436 0.2265358003623827
Ar -0.9142674446923543 0.7373486487545728 0.9103953836269384
Ar 0.358415320708356 1.979722985780469 1.054661606036335
Ar 0.1972169790493624 -0.03079336040467435 0.9508730482949119
Ar -40.68463432405409 19.18287142551809 23.45236844708328
Ar -1.484800369114287 -2.290475314989332 -0.8098231575404279
Ar -0.2440632919579741 -0.9882418919416813 1.298773058948766
Ar 1.079126667132719 1.375328833685782 1.571618657204681
Ar -1.103822702743319 -1.306876583209655 -0.4877709799026839
Ar 1.456854972472992 -2.188913506442236 -0.8767202018363808
Ar 1.320123525172781 -0.2741423591336921 -1.04006980448608
Ar 0.9165294705650486 -1.249935603427679 -1.071173192966241
Ar 0.4989193887444763 -2.657472342453004 0.8152274554663307
Ar 1.8556161619615 0.6549131757876938 1.342756020419025
Ar 1.808780785767035 0.1593328507452282 -1.885932900589365
Ar 1.824091554149728 0.8489841866096965 0.2617148009727496