115
Lattice="13.75323 0.0 0.0 0.0 13.75323 0.0 0.0 0.0 23.89" Properties=species:S:1:pos:R:3 entry_id=24 rank=0 energy=-573.0133056640625 parent_id=23 pbc="T T F"
Pd       0.00000000       0.00000000      10.00000000
Pd       2.75064538       0.00000000      10.00000000
Pd       5.50129076       0.00000000      10.00000000
Pd       8.25193614       0.00000000      10.00000000
Pd      11.00258152       0.00000000      10.00000000
Pd       0.00000000       2.75064538      10.00000000
Pd       2.75064538       2.75064538      10.00000000
Pd       5.50129076       2.75064538      10.00000000
Pd       8.25193614       2.75064538      10.00000000
Pd      11.00258152       2.75064538      10.00000000
Pd       0.00000000       5.50129076      10.00000000
Pd       2.75064538       5.50129076      10.00000000
Pd       5.50129076       5.50129076      10.00000000
Pd       8.25193614       5.50129076      10.00000000
Pd      11.00258152       5.50129076      10.00000000
Pd       0.00000000       8.25193614      10.00000000
Pd       2.75064538       8.25193614      10.00000000
Pd       5.50129076       8.25193614      10.00000000
Pd       8.25193614       8.25193614      10.00000000
Pd      11.00258152       8.25193614      10.00000000
Pd       0.00000000      11.00258152      10.00000000
Pd       2.75064538      11.00258152      10.00000000
Pd       5.50129076      11.00258152      10.00000000
Pd       8.25193614      11.00258152      10.00000000
Pd      11.00258152      11.00258152      10.00000000
Pd       1.37434645       1.44399154      11.99910327
Pd       4.12725143       1.38551031      11.93270298
Pd       6.87684812       1.37469314      12.00110560
Pd       9.57512057       1.39592898      11.89594876
Pd      12.38684272       1.37174114      11.92044161
Pd       1.34999760       4.15216244      11.96621249
Pd       4.07404981       4.12520902      11.98075961
Pd       6.82761339       4.10331312      11.99130865
Pd       9.56728621       4.13975942      11.94281254
Pd      12.36578195       4.13265160      11.93417299
Pd       1.37110082       6.89256210      11.94010419
Pd       4.13935064       6.87026939      11.96482277
Pd       6.87097415       6.85831372      11.95140951
Pd       9.64205429       6.82915781      11.94515418
Pd      12.39111484       6.85622887      11.94896407
Pd       1.37922948       9.66993348      11.96702236
Pd       4.11777592       9.66324146      11.95099537
Pd       6.89476706       9.64088005      11.95142944
Pd       9.64982872       9.59779534      11.89439304
Pd      12.42487279       9.60955999      11.94161946
Pd       1.39231348      12.44972506      11.98957142
Pd       4.13863336      12.42029245      11.99318316
Pd       6.86816975      12.39901143      11.97280504
Pd       9.63028672      12.36702810      11.91406436
Pd      12.42394674      12.34326019      11.97607023
Pd       0.08315517       0.16088763      13.97360945
Pd       2.86617453       0.14548004      14.06819562
Pd       5.60020205       0.01633202      14.02420112
Pd       8.41861998       0.07272350      14.05052342
Pd      11.08457103       0.04573806      13.81973250
Pd      10.92085068       1.28853431      16.09935348
Pd      12.65423286       2.74131330      14.19939751
Pd       1.63612428       2.98007924      14.39826459
Pd       5.33661076       2.75274983      13.99554609
Pd       8.15441601       2.80893511      14.01006212
Pd      13.74156750       5.38538722      14.03166786
Pd       2.74189737       5.51473348      13.99640943
Pd       5.55564117       5.53289101      13.94390089
Pd       8.25095987       5.51717824      13.97825575
Pd      10.99575962       5.20977916      13.95502375
Pd      13.70372727       8.22463831      13.91297468
Pd       2.75066447       8.30945652      13.92155963
Pd       5.47624167       8.28541836      13.97661425
Pd       8.24887628       8.27370549      13.92324733
Pd      10.95648062       8.11211448      14.00562678
Pd      13.71888600      10.97318624      14.04181886
Pd       2.78497439      11.13895478      13.94057105
Pd       5.51666098      10.98719851      13.90913715
Pd       8.22754426      11.02801524      13.97765937
Pd      10.94832205      10.93877781      13.87444584
Pd      12.15672260       6.55514710      16.15173289
Pd       9.39976740       9.60174168      16.31387678
Pd       1.91596082      12.58938828      16.48245336
Pd       1.38028633       7.15539385      15.90145614
Pd      12.23171671       9.44033257      16.10862025
Pd       7.87554624       1.82706330      16.68049216
Pd       4.16717197       0.88423641      16.78339233
Pd       6.05285013       9.78549190      16.38464972
Pd       4.40984715      12.03878713      16.07740048
Pd      12.21315356      12.38623107      15.97553845
Pd      13.54779797       4.24523104      16.61305188
Pd       2.54154375       4.09247884      17.04716696
Pd       8.73763638       4.40023758      16.45254522
Pd       2.90817122       9.73374936      16.29694962
Pd       6.81995118       6.90588040      15.92032049
Pd       6.94316417      12.71673971      16.15343054
Pd       9.48789965       6.93036605      16.25036561
Pd       5.49664964       4.27881163      16.35835953
Pd       0.62649232       1.46870983      16.89338910
Pd       4.11960200       7.09916451      16.28373175
O        7.08284505       3.55961434      17.18558309
O       10.87076510      10.93092030      15.95470127
O        0.06708728      13.50469287      16.01381765
O        9.33946886       2.72667380      17.90675964
O       10.53819615       2.16090426      17.90287987
O        4.46304664       8.85066282      17.07135027
O        3.42580174       2.07470353      14.48644639
O        1.05836283       3.09274150      17.90222808
O        9.10529442       0.39015035      16.01171895
O        1.43179777      10.87739984      15.60938519
O        2.33185518       0.50880861      17.45177988
O        1.16238302       5.56820663      17.15280718
O        3.76488799       5.18663463      15.85456030
O        8.13002819       8.19947658      16.94802564
O        4.15378867       2.90376345      17.21594505
O       12.65257251       2.37494618      16.22065820
O       10.57316553       5.23113577      15.96593052
O       13.40932812       7.97290170      16.67926506
O        6.08338408       0.78350635      16.11609964
O        7.70444847      10.88618720      16.04857843
115
Lattice="13.75323 0.0 0.0 0.0 13.75323 0.0 0.0 0.0 23.89" Properties=species:S:1:pos:R:3 entry_id=20 rank=1 energy=-573.0091552734375 parent_id=19 pbc="T T F"
Pd       0.00000000       0.00000000      10.00000000
Pd       2.75064538       0.00000000      10.00000000
Pd       5.50129076       0.00000000      10.00000000
Pd       8.25193614       0.00000000      10.00000000
Pd      11.00258152       0.00000000      10.00000000
Pd       0.00000000       2.75064538      10.00000000
Pd       2.75064538       2.75064538      10.00000000
Pd       5.50129076       2.75064538      10.00000000
Pd       8.25193614       2.75064538      10.00000000
Pd      11.00258152       2.75064538      10.00000000
Pd       0.00000000       5.50129076      10.00000000
Pd       2.75064538       5.50129076      10.00000000
Pd       5.50129076       5.50129076      10.00000000
Pd       8.25193614       5.50129076      10.00000000
Pd      11.00258152       5.50129076      10.00000000
Pd       0.00000000       8.25193614      10.00000000
Pd       2.75064538       8.25193614      10.00000000
Pd       5.50129076       8.25193614      10.00000000
Pd       8.25193614       8.25193614      10.00000000
Pd      11.00258152       8.25193614      10.00000000
Pd       0.00000000      11.00258152      10.00000000
Pd       2.75064538      11.00258152      10.00000000
Pd       5.50129076      11.00258152      10.00000000
Pd       8.25193614      11.00258152      10.00000000
Pd      11.00258152      11.00258152      10.00000000
Pd       1.37887009       1.45178312      12.00047753
Pd       4.13147842       1.38762415      11.93083975
Pd       6.87910445       1.37550365      12.00042959
Pd       9.57512057       1.39592898      11.89594876
Pd      12.38684272       1.37174114      11.92044161
Pd       1.34877675       4.15756894      11.97102789
Pd       4.07289288       4.12319431      11.98318814
Pd       6.82537167       4.10548541      11.98997764
Pd       9.56728621       4.13975942      11.94281254
Pd      12.36578195       4.13265160      11.93417299
Pd       1.37110082       6.89256210      11.94010419
Pd       4.13935064       6.87026939      11.96482277
Pd       6.87097415       6.85831372      11.95140951
Pd       9.64205429       6.82915781      11.94515418
Pd      12.39111484       6.85622887      11.94896407
Pd       1.37781456       9.67316236      11.97211042
Pd       4.11777592       9.66324146      11.95099537
Pd       6.89476706       9.64088005      11.95142944
Pd       9.64982872       9.59779534      11.89439304
Pd      12.42487279       9.60955999      11.94161946
Pd       1.39124299      12.45668106      11.99288983
Pd       4.13786139      12.42258510      11.99346077
Pd       6.86816975      12.39901143      11.97280504
Pd       9.63028672      12.36702810      11.91406436
Pd      12.42288986      12.34325180      11.97973253
Pd       0.09167563       0.17164085      13.97507624
Pd       2.87508286       0.15636390      14.06643785
Pd       5.60620829       0.02222136      14.02538607
Pd       8.42355949       0.07690916      14.05528910
Pd      11.08847843       0.04790158      13.82107184
Pd      10.94880374       1.32892973      16.08267393
Pd      12.68960029       2.76005945      14.18644354
Pd       1.66355260       2.98824178      14.39668800
Pd       5.34189136       2.75626527      13.99760702
Pd       8.15466035       2.81359961      14.00516033
Pd      13.74741424       5.39922130      14.03464215
Pd       2.74933253       5.52306690      13.99590424
Pd       5.55566368       5.53854109      13.94389470
Pd       8.24861660       5.51723958      13.98126885
Pd      10.99841180       5.21919867      13.95463150
Pd      13.70504362       8.23016334      13.91619195
Pd       2.75671514       8.31752261      13.92411166
Pd       5.48054450       8.29235817      13.97848788
Pd       8.25172791       8.27259421      13.92288589
Pd      10.96045204       8.11846214      14.00598594
Pd      13.71231321      10.98308678      14.04363631
Pd       2.78103388      11.14665711      13.94231292
Pd       5.50802927      10.99336396      13.91205708
Pd       8.21970235      11.02887445      13.98096360
Pd      10.94413906      10.94204784      13.87858650
Pd      12.15959477       6.56013195      16.15949859
Pd       9.39780133       9.62033542      16.31512682
Pd       1.91630447      12.60963734      16.48027869
Pd       1.38850600       7.16868600      15.90153305
Pd      12.23029324       9.45087603      16.10938742
Pd       7.89279737       1.84765199      16.67765743
Pd       4.18391903       0.90678207      16.79024974
Pd       6.04455416       9.80072806      16.39022182
Pd       4.40806400      12.05993253      16.08023314
Pd      12.21446931      12.40579541      15.97555853
Pd      13.57325063       4.26710324      16.61394546
Pd       2.56112362       4.11585530      17.05831993
Pd       8.73658538       4.42567254      16.46245611
Pd       2.90199830       9.75371612      16.30143504
Pd       6.82161866       6.91288301      15.92494204
Pd       6.94534568      12.73259166      16.15659947
Pd       9.49405181       6.94948508      16.24450912
Pd       5.50639755       4.29629242      16.36477319
Pd       0.64548831       1.49074154      16.89322695
Pd       4.12211423       7.12116099      16.29153748
O        7.08676279       3.57143739      17.19628218
O       10.87470386      10.94634650      15.96052588
O        0.06888953      13.52667524      16.01649349
O        9.36215137       2.79056591      17.87981215
O       10.58299115       2.27255599      17.85411620
O        4.45327597       8.87209367      17.08067266
O        3.44537909       2.07630160      14.52549166
O        1.07886832       3.11169311      17.90827684
O        9.13802667       0.42973724      16.00047744
O        1.42562862      10.89763277      15.60868685
O        2.34627098       0.52565959      17.45090548
O        1.18119293       5.59069535      17.16286010
O        3.77811687       5.20826635      15.85552104
O        8.13314370       8.21203247      16.94610981
O        4.16965310       2.92564490      17.23539790
O       12.68551867       2.40212885      16.20549305
O       10.57753649       5.24495559      15.96716150
O       13.41117403       7.98203009      16.67190978
O        6.10231779       0.80416068      16.12471140
O        7.69706318      10.89864495      16.05306892
115
Lattice="13.75323 0.0 0.0 0.0 13.75323 0.0 0.0 0.0 23.89" Properties=species:S:1:pos:R:3 entry_id=19 rank=2 energy=-573.0078125 parent_id=18 pbc="T T F"
Pd       0.00000000       0.00000000      10.00000000
Pd       2.75064538       0.00000000      10.00000000
Pd       5.50129076       0.00000000      10.00000000
Pd       8.25193614       0.00000000      10.00000000
Pd      11.00258152       0.00000000      10.00000000
Pd       0.00000000       2.75064538      10.00000000
Pd       2.75064538       2.75064538      10.00000000
Pd       5.50129076       2.75064538      10.00000000
Pd       8.25193614       2.75064538      10.00000000
Pd      11.00258152       2.75064538      10.00000000
Pd       0.00000000       5.50129076      10.00000000
Pd       2.75064538       5.50129076      10.00000000
Pd       5.50129076       5.50129076      10.00000000
Pd       8.25193614       5.50129076      10.00000000
Pd      11.00258152       5.50129076      10.00000000
Pd       0.00000000       8.25193614      10.00000000
Pd       2.75064538       8.25193614      10.00000000
Pd       5.50129076       8.25193614      10.00000000
Pd       8.25193614       8.25193614      10.00000000
Pd      11.00258152       8.25193614      10.00000000
Pd       0.00000000      11.00258152      10.00000000
Pd       2.75064538      11.00258152      10.00000000
Pd       5.50129076      11.00258152      10.00000000
Pd       8.25193614      11.00258152      10.00000000
Pd      11.00258152      11.00258152      10.00000000
Pd       1.37582791       1.45254113      12.00251381
Pd       4.12753466       1.38718204      11.92947203
Pd       6.87518084       1.37769128      12.00355051
Pd       9.57512057       1.39592898      11.89594876
Pd      12.38684272       1.37174114      11.92044161
Pd       1.34895851       4.15882914      11.96518081
Pd       4.06826028       4.12724571      11.98194685
Pd       6.82272806       4.10290834      11.99084633
Pd       9.56728621       4.13975942      11.94281254
Pd      12.36578195       4.13265160      11.93417299
Pd       1.37110082       6.89256210      11.94010419
Pd       4.13935064       6.87026939      11.96482277
Pd       6.87097415       6.85831372      11.95140951
Pd       9.64205429       6.82915781      11.94515418
Pd      12.39111484       6.85622887      11.94896407
Pd       1.37654605       9.67594034      11.96791766
Pd       4.11777592       9.66324146      11.95099537
Pd       6.89476706       9.64088005      11.95142944
Pd       9.64982872       9.59779534      11.89439304
Pd      12.42487279       9.60955999      11.94161946
Pd       1.38245265      12.45899626      11.98593610
Pd       4.12943954      12.42270853      11.98815400
Pd       6.86816975      12.39901143      11.97280504
Pd       9.63028672      12.36702810      11.91406436
Pd      12.41677392      12.34557911      11.97785008
Pd       0.07549143       0.17712938      13.97556240
Pd       2.85626457       0.15786917      14.07011597
Pd       5.58408610       0.02326210      14.01362218
Pd       8.40413040       0.07433481      14.04463083
Pd      11.07639391       0.05514987      13.82202291
Pd      10.88200954       1.33183138      16.08487551
Pd      12.63418374       2.75937734      14.19880255
Pd       1.61474564       3.00246364      14.39918029
Pd       5.32073568       2.76015894      13.99772976
Pd       8.15904449       2.81049705      14.00708497
Pd      13.73385501       5.40199289      14.02947380
Pd       2.73246234       5.53607680      13.99700080
Pd       5.54424058       5.53900939      13.94104227
Pd       8.23610464       5.51739669      13.97622511
Pd      10.98522003       5.21923272      13.95214103
Pd      13.70075167       8.24055017      13.91064932
Pd       2.74718550       8.32652232      13.92460830
Pd       5.47443284       8.29393162      13.97172438
Pd       8.24659766       8.27056195      13.92302502
Pd      10.95395241       8.11760447      14.00146748
Pd      13.69321694      10.99126436      14.04322176
Pd       2.76091019      11.15477272      13.93851724
Pd       5.49361132      10.99727445      13.90639326
Pd       8.20580240      11.02666918      13.98449823
Pd      10.92997967      10.94328000      13.87686374
Pd      12.13336536       6.57920659      16.14298190
Pd       9.36364227       9.61978732      16.31975779
Pd       1.87451518      12.63046490      16.47765118
Pd       1.36045680       7.19335085      15.90953070
Pd      12.19526452       9.46380131      16.10906206
Pd       7.84207954       1.84277128      16.67875524
Pd       4.13711132       0.91736345      16.77350282
Pd       6.00397578       9.81198866      16.38737875
Pd       4.36850314      12.06944537      16.06721150
Pd      12.17342284      12.40961378      15.98129640
Pd      13.51718419       4.28901535      16.62259477
Pd       2.51398005       4.12801487      17.04858825
Pd       8.71551109       4.40981546      16.44647955
Pd       2.85481069       9.77015278      16.30037352
Pd       6.79734019       6.92142515      15.92171008
Pd       6.90932922      12.73150079      16.14896011
Pd       9.46617882       6.94332682      16.24954041
Pd       5.46865698       4.30246274      16.35579833
Pd       0.58634982       1.51014025      16.88820546
Pd       4.09253626       7.13441937      16.27990357
O        7.05554052       3.57752876      17.17769175
O       10.83260858      10.95241792      15.95827838
O        0.02061641      13.54094556      16.01769787
O        9.30221254       2.74131425      17.91051409
O       10.49991119       2.17191426      17.90317442
O        4.40912458       8.88777084      17.07189521
O        3.40169648       2.09063029      14.49001209
O        1.02651331       3.13056361      17.90049323
O        9.07690047       0.41079727      16.00238621
O        1.38417972      10.91702116      15.61187953
O        2.29739814       0.55262628      17.43822834
O        1.13885505       5.60685853      17.16041428
O        3.74229179       5.21875319      15.85776506
O        8.11065107       8.20602960      16.95220580
O        4.12278023       2.93485137      17.21701894
O       12.61331769       2.42308771      16.22202810
O       10.55283505       5.24556226      15.96126905
O       13.37945621       8.00090251      16.67472636
O        6.05557016       0.80367615      16.10724475
O        7.66464627      10.89778942      16.05602805
115
Lattice="13.75323 0.0 0.0 0.0 13.75323 0.0 0.0 0.0 23.89" Properties=species:S:1:pos:R:3 entry_id=23 rank=3 energy=-573.0064697265625 parent_id=22 pbc="T T F"
Pd       0.00000000       0.00000000      10.00000000
Pd       2.75064538       0.00000000      10.00000000
Pd       5.50129076       0.00000000      10.00000000
Pd       8.25193614       0.00000000      10.00000000
Pd      11.00258152       0.00000000      10.00000000
Pd       0.00000000       2.75064538      10.00000000
Pd       2.75064538       2.75064538      10.00000000
Pd       5.50129076       2.75064538      10.00000000
Pd       8.25193614       2.75064538      10.00000000
Pd      11.00258152       2.75064538      10.00000000
Pd       0.00000000       5.50129076      10.00000000
Pd       2.75064538       5.50129076      10.00000000
Pd       5.50129076       5.50129076      10.00000000
Pd       8.25193614       5.50129076      10.00000000
Pd      11.00258152       5.50129076      10.00000000
Pd       0.00000000       8.25193614      10.00000000
Pd       2.75064538       8.25193614      10.00000000
Pd       5.50129076       8.25193614      10.00000000
Pd       8.25193614       8.25193614      10.00000000
Pd      11.00258152       8.25193614      10.00000000
Pd       0.00000000      11.00258152      10.00000000
Pd       2.75064538      11.00258152      10.00000000
Pd       5.50129076      11.00258152      10.00000000
Pd       8.25193614      11.00258152      10.00000000
Pd      11.00258152      11.00258152      10.00000000
Pd       1.37450303       1.45225273      11.99840901
Pd       4.13053579       1.39021518      11.93256242
Pd       6.87819887       1.37396644      12.00096061
Pd       9.57512057       1.39592898      11.89594876
Pd      12.38684272       1.37174114      11.92044161
Pd       1.34600373       4.16093738      11.96525886
Pd       4.06692192       4.12756253      11.98332843
Pd       6.82090557       4.10668944      11.99007552
Pd       9.56728621       4.13975942      11.94281254
Pd      12.36578195       4.13265160      11.93417299
Pd       1.37110082       6.89256210      11.94010419
Pd       4.13935064       6.87026939      11.96482277
Pd       6.87097415       6.85831372      11.95140951
Pd       9.64205429       6.82915781      11.94515418
Pd      12.39111484       6.85622887      11.94896407
Pd       1.37930721       9.67731173      11.97124359
Pd       4.11777592       9.66324146      11.95099537
Pd       6.89476706       9.64088005      11.95142944
Pd       9.64982872       9.59779534      11.89439304
Pd      12.42487279       9.60955999      11.94161946
Pd       1.38807118      12.45902230      11.99305710
Pd       4.13520526      12.42540738      11.99457591
Pd       6.86816975      12.39901143      11.97280504
Pd       9.63028672      12.36702810      11.91406436
Pd      12.42274775      12.34626664      11.97791491
Pd       0.08127420       0.18105591      13.97755418
Pd       2.87040298       0.16393978      14.06966827
Pd       5.60262481       0.02564928      14.02741701
Pd       8.41726230       0.07634647      14.05450843
Pd      11.08093120       0.04530221      13.82231425
Pd      10.95190596       1.34384774      16.08123123
Pd      12.66136892       2.76446268      14.19264795
Pd       1.62962810       3.00641745      14.39403002
Pd       5.33253074       2.76143224      13.99677352
Pd       8.15105822       2.81652137      13.99684578
Pd      13.74307787       5.40708297      14.03690517
Pd       2.73938345       5.54034828      13.99730929
Pd       5.55458870       5.54790992      13.94169215
Pd       8.25006565       5.52460241      13.97933481
Pd      10.99812472       5.21152980      13.95498843
Pd      13.70854968       8.23472586      13.91403303
Pd       2.75476486       8.32779334      13.92855693
Pd       5.47859693       8.29886373      13.98211757
Pd       8.25287077       8.27713950      13.92115898
Pd      10.96309361       8.11638080      14.00257409
Pd      13.71137621      10.98530580      14.04837056
Pd       2.77747055      11.15742909      13.94656469
Pd       5.50724265      10.99663875      13.91136820
Pd       8.22043583      11.02897881      13.98286523
Pd      10.94653399      10.94156347      13.87539742
Pd      12.16552999       6.57611466      16.15651711
Pd       9.39700904       9.62278858      16.31662168
Pd       1.91282498      12.62490232      16.47947604
Pd       1.38174310       7.19933653      15.92088004
Pd      12.22166083       9.46212747      16.11027093
Pd       7.89772115       1.84842244      16.66002762
Pd       4.18666660       0.91334219      16.78478271
Pd       6.03043738       9.80439210      16.40041212
Pd       4.40259964      12.06831073      16.07766391
Pd      12.21244955      12.41352372      15.97996569
Pd      13.57158845       4.29217691      16.62974450
Pd       2.55810727       4.13369626      17.05321257
Pd       8.74320762       4.42655634      16.44377385
Pd       2.89442190       9.76413685      16.31083605
Pd       6.82495805       6.92829022      15.92460167
Pd       6.94504877      12.72336620      16.15275128
Pd       9.50280821       6.95064206      16.24584751
Pd       5.50043256       4.30071649      16.34471462
Pd       0.64452741       1.50821768      16.89397198
Pd       4.11872212       7.13531101      16.29921931
O        7.08705155       3.57348191      17.16144763
O       10.86645116      10.95958640      15.95476047
O        0.06508871      13.54202640      16.02044495
O        9.35671268       2.79876743      17.87440814
O       10.57546638       2.27807886      17.85721865
O        4.44077720       8.88239247      17.10092274
O        3.41465717       2.09914895      14.47573052
O        1.08114733       3.12849845      17.91063630
O        9.14878848       0.43115256      15.99416072
O        1.42075517      10.90923773      15.61540776
O        2.34770135       0.54203765      17.44671209
O        1.18250822       5.61482194      17.17824043
O        3.77285102       5.22483943      15.85093318
O        8.14709130       8.20664132      16.95446615
O        4.16249792       2.93367624      17.21165088
O       12.68424469       2.42758516      16.21556989
O       10.58830452       5.24798127      15.96509217
O       13.40256155       8.00236836      16.69415851
O        6.10622799       0.79647009      16.12375403
O        7.69034178      10.88749493      16.05509154
115
Lattice="13.75323 0.0 0.0 0.0 13.75323 0.0 0.0 0.0 23.89" Properties=species:S:1:pos:R:3 entry_id=22 rank=4 energy=-572.970458984375 parent_id=21 pbc="T T F"
Pd       0.00000000       0.00000000      10.00000000
Pd       2.75064538       0.00000000      10.00000000
Pd       5.50129076       0.00000000      10.00000000
Pd       8.25193614       0.00000000      10.00000000
Pd      11.00258152       0.00000000      10.00000000
Pd       0.00000000       2.75064538      10.00000000
Pd       2.75064538       2.75064538      10.00000000
Pd       5.50129076       2.75064538      10.00000000
Pd       8.25193614       2.75064538      10.00000000
Pd      11.00258152       2.75064538      10.00000000
Pd       0.00000000       5.50129076      10.00000000
Pd       2.75064538       5.50129076      10.00000000
Pd       5.50129076       5.50129076      10.00000000
Pd       8.25193614       5.50129076      10.00000000
Pd      11.00258152       5.50129076      10.00000000
Pd       0.00000000       8.25193614      10.00000000
Pd       2.75064538       8.25193614      10.00000000
Pd       5.50129076       8.25193614      10.00000000
Pd       8.25193614       8.25193614      10.00000000
Pd      11.00258152       8.25193614      10.00000000
Pd       0.00000000      11.00258152      10.00000000
Pd       2.75064538      11.00258152      10.00000000
Pd       5.50129076      11.00258152      10.00000000
Pd       8.25193614      11.00258152      10.00000000
Pd      11.00258152      11.00258152      10.00000000
Pd       1.37278435       1.44556005      12.00230674
Pd       4.12457110       1.38483137      11.93432346
Pd       6.87469775       1.37755193      12.00527243
Pd       9.57512057       1.39592898      11.89594876
Pd      12.38684272       1.37174114      11.92044161
Pd       1.35532314       4.15240464      11.96327685
Pd       4.07920462       4.12108814      11.98104532
Pd       6.82597535       4.10329948      11.99466349
Pd       9.56728621       4.13975942      11.94281254
Pd      12.36578195       4.13265160      11.93417299
Pd       1.37110082       6.89256210      11.94010419
Pd       4.13935064       6.87026939      11.96482277
Pd       6.87097415       6.85831372      11.95140951
Pd       9.64205429       6.82915781      11.94515418
Pd      12.39111484       6.85622887      11.94896407
Pd       1.37007102       9.66324108      11.97638992
Pd       4.11777592       9.66324146      11.95099537
Pd       6.89476706       9.64088005      11.95142944
Pd       9.64982872       9.59779534      11.89439304
Pd      12.42487279       9.60955999      11.94161946
Pd       1.38460592      12.45033238      11.98737979
Pd       4.13277001      12.41874437      11.99178086
Pd       6.86816975      12.39901143      11.97280504
Pd       9.63028672      12.36702810      11.91406436
Pd      12.41691580      12.35073070      11.97803693
Pd       0.07846570       0.17058264      13.98115112
Pd       2.85538983       0.14378255      14.06860318
Pd       5.58590461       0.01233620      14.01247252
Pd       8.40613355       0.07429577      14.05361979
Pd      11.07438906       0.07319873      13.82133799
Pd      10.89875991       1.34006084      16.09453793
Pd      12.64265190       2.74775296      14.19830918
Pd       1.62750879       2.98187734      14.39690645
Pd       5.33130906       2.75340585      14.00670636
Pd       8.16268492       2.81506753      14.00980407
Pd      13.74855876       5.37330869      14.02408312
Pd       2.75601654       5.50462864      13.98503470
Pd       5.55793026       5.53737274      13.95087512
Pd       8.24626329       5.52393701      13.97669996
Pd      10.97830170       5.18063162      13.96238150
Pd      13.70682188       8.22220649      13.95794390
Pd       2.77439257       8.31881542      13.91397442
Pd       5.48518628       8.28802129      13.98636694
Pd       8.23841872       8.27659281      13.92716139
Pd      10.93489120       8.12477281      13.97375085
Pd      13.69766657      10.99638262      14.03955332
Pd       2.76465886      11.14073914      13.94103887
Pd       5.49613174      10.98692666      13.91121432
Pd       8.20188361      11.02997334      13.98169167
Pd      10.92338972      10.97069969      13.86840039
Pd      12.12569328       6.57183978      16.05444471
Pd       9.34311137       9.64697561      16.32833973
Pd       1.88444408      12.60685402      16.48184111
Pd       1.49660460       7.14930542      15.90504974
Pd      12.13701373       9.54975195      16.02831439