115
Lattice="13.75323 0.0 0.0 0.0 13.75323 0.0 0.0 0.0 23.89" Properties=species:S:1:pos:R:3 entry_id=24 rank=0 energy=-573.0133056640625 parent_id=23 pbc="T T F"
Pd       0.00000000       0.00000000      10.00000000
Pd       2.75064538       0.00000000      10.00000000
Pd       5.50129076       0.00000000      10.00000000
Pd       8.25193614       0.00000000      10.00000000
Pd      11.00258152       0.00000000      10.00000000
Pd       0.00000000       2.75064538      10.00000000
Pd       2.75064538       2.75064538      10.00000000
Pd       5.50129076       2.75064538      10.00000000
Pd       8.25193614       2.75064538      10.00000000
Pd      11.00258152       2.75064538      10.00000000
Pd       0.00000000       5.50129076      10.00000000
Pd       2.75064538       5.50129076      10.00000000
Pd       5.50129076       5.50129076      10.00000000
Pd       8.25193614       5.50129076      10.00000000
Pd      11.00258152       5.50129076      10.00000000
Pd       0.00000000       8.25193614      10.00000000
Pd       2.75064538       8.25193614      10.00000000
Pd       5.50129076       8.25193614      10.00000000
Pd       8.25193614       8.25193614      10.00000000
Pd      11.00258152       8.25193614      10.00000000
Pd       0.00000000      11.00258152      10.00000000
Pd       2.75064538      11.00258152      10.00000000
Pd       5.50129076      11.00258152      10.00000000
Pd       8.25193614      11.00258152      10.00000000
Pd      11.00258152      11.00258152      10.00000000
Pd       1.37434645       1.44399154      11.99910327
Pd       4.12725143       1.38551031      11.93270298
Pd       6.87684812       1.37469314      12.00110560
Pd       9.57512057       1.39592898      11.89594876
Pd      12.38684272       1.37174114      11.92044161
Pd       1.34999760       4.15216244      11.96621249
Pd       4.07404981       4.12520902      11.98075961
Pd       6.82761339       4.10331312      11.99130865
Pd       9.56728621       4.13975942      11.94281254
Pd      12.36578195       4.13265160      11.93417299
Pd       1.37110082       6.89256210      11.94010419
Pd       4.13935064       6.87026939      11.96482277
Pd       6.87097415       6.85831372      11.95140951
Pd       9.64205429       6.82915781      11.94515418
Pd      12.39111484       6.85622887      11.94896407
Pd       1.37922948       9.66993348      11.96702236
Pd       4.11777592       9.66324146      11.95099537
Pd       6.89476706       9.64088005      11.95142944
Pd       9.64982872       9.59779534      11.89439304
Pd      12.42487279       9.60955999      11.94161946
Pd       1.39231348      12.44972506      11.98957142
Pd       4.13863336      12.42029245      11.99318316
Pd       6.86816975      12.39901143      11.97280504
Pd       9.63028672      12.36702810      11.91406436
Pd      12.42394674      12.34326019      11.97607023
Pd       0.08315517       0.16088763      13.97360945
Pd       2.86617453       0.14548004      14.06819562
Pd       5.60020205       0.01633202      14.02420112
Pd       8.41861998       0.07272350      14.05052342
Pd      11.08457103       0.04573806      13.81973250
Pd      10.92085068       1.28853431      16.09935348
Pd      12.65423286       2.74131330      14.19939751
Pd       1.63612428       2.98007924      14.39826459
Pd       5.33661076       2.75274983      13.99554609
Pd       8.15441601       2.80893511      14.01006212
Pd      13.74156750       5.38538722      14.03166786
Pd       2.74189737       5.51473348      13.99640943
Pd       5.55564117       5.53289101      13.94390089
Pd       8.25095987       5.51717824      13.97825575
Pd      10.99575962       5.20977916      13.95502375
Pd      13.70372727       8.22463831      13.91297468
Pd       2.75066447       8.30945652      13.92155963
Pd       5.47624167       8.28541836      13.97661425
Pd       8.24887628       8.27370549      13.92324733
Pd      10.95648062       8.11211448      14.00562678
Pd      13.71888600      10.97318624      14.04181886
Pd       2.78497439      11.13895478      13.94057105
Pd       5.51666098      10.98719851      13.90913715
Pd       8.22754426      11.02801524      13.97765937
Pd      10.94832205      10.93877781      13.87444584
Pd      12.15672260       6.55514710      16.15173289
Pd       9.39976740       9.60174168      16.31387678
Pd       1.91596082      12.58938828      16.48245336
Pd       1.38028633       7.15539385      15.90145614
Pd      12.23171671       9.44033257      16.10862025
Pd       7.87554624       1.82706330      16.68049216
Pd       4.16717197       0.88423641      16.78339233
Pd       6.05285013       9.78549190      16.38464972
Pd       4.40984715      12.03878713      16.07740048
Pd      12.21315356      12.38623107      15.97553845
Pd      13.54779797       4.24523104      16.61305188
Pd       2.54154375       4.09247884      17.04716696
Pd       8.73763638       4.40023758      16.45254522
Pd       2.90817122       9.73374936      16.29694962
Pd       6.81995118       6.90588040      15.92032049
Pd       6.94316417      12.71673971      16.15343054
Pd       9.48789965       6.93036605      16.25036561
Pd       5.49664964       4.27881163      16.35835953
Pd       0.62649232       1.46870983      16.89338910
Pd       4.11960200       7.09916451      16.28373175
O        7.08284505       3.55961434      17.18558309
O       10.87076510      10.93092030      15.95470127
O        0.06708728      13.50469287      16.01381765
O        9.33946886       2.72667380      17.90675964
O       10.53819615       2.16090426      17.90287987
O        4.46304664       8.85066282      17.07135027
O        3.42580174       2.07470353      14.48644639
O        1.05836283       3.09274150      17.90222808
O        9.10529442       0.39015035      16.01171895
O        1.43179777      10.87739984      15.60938519
O        2.33185518       0.50880861      17.45177988
O        1.16238302       5.56820663      17.15280718
O        3.76488799       5.18663463      15.85456030
O        8.13002819       8.19947658      16.94802564
O        4.15378867       2.90376345      17.21594505
O       12.65257251       2.37494618      16.22065820
O       10.57316553       5.23113577      15.96593052
O       13.40932812       7.97290170      16.67926506
O        6.08338408       0.78350635      16.11609964
O        7.70444847      10.88618720      16.04857843
