115
Lattice="13.75323 0.0 0.0 0.0 13.75323 0.0 0.0 0.0 23.89" Properties=species:S:1:pos:R:3 entry_id=34 rank=18 energy=-572.8226318359375 parent_id=20 pbc="T T F"
Pd       0.00000000       0.00000000      10.00000000
Pd       2.75064538       0.00000000      10.00000000
Pd       5.50129076       0.00000000      10.00000000
Pd       8.25193614       0.00000000      10.00000000
Pd      11.00258152       0.00000000      10.00000000
Pd       0.00000000       2.75064538      10.00000000
Pd       2.75064538       2.75064538      10.00000000
Pd       5.50129076       2.75064538      10.00000000
Pd       8.25193614       2.75064538      10.00000000
Pd      11.00258152       2.75064538      10.00000000
Pd       0.00000000       5.50129076      10.00000000
Pd       2.75064538       5.50129076      10.00000000
Pd       5.50129076       5.50129076      10.00000000
Pd       8.25193614       5.50129076      10.00000000
Pd      11.00258152       5.50129076      10.00000000
Pd       0.00000000       8.25193614      10.00000000
Pd       2.75064538       8.25193614      10.00000000
Pd       5.50129076       8.25193614      10.00000000
Pd       8.25193614       8.25193614      10.00000000
Pd      11.00258152       8.25193614      10.00000000
Pd       0.00000000      11.00258152      10.00000000
Pd       2.75064538      11.00258152      10.00000000
Pd       5.50129076      11.00258152      10.00000000
Pd       8.25193614      11.00258152      10.00000000
Pd      11.00258152      11.00258152      10.00000000
Pd       1.37121936       1.44828056      11.98898030
Pd       4.12748357       1.37901078      11.91193449
Pd       6.89014809       1.40025994      12.04890137
Pd       9.57512057       1.39592898      11.89594876
Pd      12.38684272       1.37174114      11.92044161
Pd       1.35587403       4.15311671      11.96397624
Pd       4.08195409       4.13293738      11.95083042
Pd       6.84441534       4.05958944      12.05699950
Pd       9.56728621       4.13975942      11.94281254
Pd      12.36578195       4.13265160      11.93417299
Pd       1.37110082       6.89256210      11.94010419
Pd       4.13935064       6.87026939      11.96482277
Pd       6.87097415       6.85831372      11.95140951
Pd       9.64205429       6.82915781      11.94515418
Pd      12.39111484       6.85622887      11.94896407
Pd       1.36912343       9.66535157      11.97761868
Pd       4.11777592       9.66324146      11.95099537
Pd       6.89476706       9.64088005      11.95142944
Pd       9.64982872       9.59779534      11.89439304
Pd      12.42487279       9.60955999      11.94161946
Pd       1.36885164      12.45791779      11.99015944
Pd       4.12371626      12.41780994      11.98424738
Pd       6.86816975      12.39901143      11.97280504
Pd       9.63028672      12.36702810      11.91406436
Pd      12.40339105      12.35692650      11.98596466
Pd       0.05015029       0.22187638      13.98201983
Pd       2.82234265       0.14362220      14.04077540
Pd       5.54911322       0.04034026      13.99364109
Pd       8.37658517       0.11249020      14.04418147
Pd      11.04515701       0.10186929      13.83402637
Pd      10.79852650       1.25631930      16.17698500
Pd      12.42919481       2.73745049      14.25040094
Pd       1.46664492       2.96909833      14.41492224
Pd       5.16258967       2.77186202      13.98431396
Pd       9.26896979       2.77860291      14.23294646
Pd      13.71757464       5.36888336      14.02304842
Pd       2.74117883       5.46427200      13.98900928
Pd       5.53547315       5.53250723      13.93673395
Pd       8.22315590       5.44761500      13.97725340
Pd      10.94696535       5.16892080      13.99850859
Pd      13.70769754       8.24247604      13.95713729
Pd       2.77867922       8.30667189      13.91286174
Pd       5.48623971       8.29507520      13.98186471
Pd       8.23774345       8.25594912      13.92290066
Pd      10.93387800       8.12800482      13.97529763
Pd      13.68543920      11.02583799      14.03930180
Pd       2.75484103      11.13781965      13.92947991
Pd       5.48469191      11.00324412      13.90373877
Pd       8.18854848      11.03569011      13.97877723
Pd      10.91128072      10.97920073      13.87230089
Pd      12.11819289       6.61517268      16.06156883
Pd       9.31292667       9.65821663      16.32217043
Pd       1.85246148      12.63356290      16.45881226
Pd       1.48373428       7.11812510      15.87639407
Pd      12.12721704       9.57275156      16.02162627
Pd       7.85606406       1.83297569      16.66151176
Pd       4.08942534       0.93895456      16.74041812
Pd       6.00814456       9.83483315      16.38151080
Pd       4.34929439      12.08241186      16.05605560
Pd      12.12626264      12.44977817      15.99709482
Pd      13.45024883       4.28663792      16.62860718
Pd       2.46936213       4.12383434      17.06781745
Pd       8.73241707       4.43588482      16.48502034
Pd       2.88438527       9.75616514      16.28725085
Pd       6.80564710       6.87440506      15.91135448
Pd       6.86611344      12.78947865      16.14028277
Pd       9.45194232       6.99441277      16.26342778
Pd       5.46184985       4.28785031      16.35861127
Pd       0.52014639       1.51852422      16.90388747
Pd       4.12941339       7.10827419      16.30991282
O        7.08116389       3.56823723      17.13138047
O       10.74659987      11.02812469      15.97015846
O       13.74682673      13.55040012      16.01937609
O        9.24440312       2.50644202      18.09329835
O       10.38119825       1.84063684      18.11041779
O        4.43715842       8.87566217      17.07180031
O        3.27189174       2.07470836      14.53469718
O        0.96466016       3.14209820      17.90988671
O        8.99525689       0.29506229      16.05722000
O        1.39907998      10.90360922      15.60246319
O        2.25290273       0.56557931      17.41154997
O        1.08978136       5.60279815      17.15260139
O        3.72644563       5.20049185      15.88424652
O        8.05464536       8.24002592      16.93951168
O        4.09025820       2.94243437      17.23521267
O       12.50638090       2.41290346      16.29295651
O       10.54976745       5.30068312      16.04022296
O       13.42291929       8.08778024      16.20808243
O        5.99843722       0.86461160      16.03643796
O        7.63898998      10.95857675      16.05055406
