115
Lattice="13.75323 0.0 0.0 0.0 13.75323 0.0 0.0 0.0 23.89" Properties=species:S:1:pos:R:3 entry_id=25 rank=26 energy=-572.69873046875 parent_id=17 pbc="T T F"
Pd       0.00000000       0.00000000      10.00000000
Pd       2.75064538       0.00000000      10.00000000
Pd       5.50129076       0.00000000      10.00000000
Pd       8.25193614       0.00000000      10.00000000
Pd      11.00258152       0.00000000      10.00000000
Pd       0.00000000       2.75064538      10.00000000
Pd       2.75064538       2.75064538      10.00000000
Pd       5.50129076       2.75064538      10.00000000
Pd       8.25193614       2.75064538      10.00000000
Pd      11.00258152       2.75064538      10.00000000
Pd       0.00000000       5.50129076      10.00000000
Pd       2.75064538       5.50129076      10.00000000
Pd       5.50129076       5.50129076      10.00000000
Pd       8.25193614       5.50129076      10.00000000
Pd      11.00258152       5.50129076      10.00000000
Pd       0.00000000       8.25193614      10.00000000
Pd       2.75064538       8.25193614      10.00000000
Pd       5.50129076       8.25193614      10.00000000
Pd       8.25193614       8.25193614      10.00000000
Pd      11.00258152       8.25193614      10.00000000
Pd       0.00000000      11.00258152      10.00000000
Pd       2.75064538      11.00258152      10.00000000
Pd       5.50129076      11.00258152      10.00000000
Pd       8.25193614      11.00258152      10.00000000
Pd      11.00258152      11.00258152      10.00000000
Pd       1.39142858       1.44204541      11.98458666
Pd       4.15715503       1.42400213      12.02382911
Pd       6.88295376       1.37241390      11.98650531
Pd       9.57512057       1.39592898      11.89594876
Pd      12.38684272       1.37174114      11.92044161
Pd       1.37148317       4.13894336      11.98149617
Pd       4.09881927       4.09190899      11.97818921
Pd       6.84249951       4.07458132      11.94539944
Pd       9.56728621       4.13975942      11.94281254
Pd      12.36578195       4.13265160      11.93417299
Pd       1.37110082       6.89256210      11.94010419
Pd       4.13935064       6.87026939      11.96482277
Pd       6.87097415       6.85831372      11.95140951
Pd       9.64205429       6.82915781      11.94515418
Pd      12.39111484       6.85622887      11.94896407
Pd       1.36447595       9.65757481      11.96724020
Pd       4.11777592       9.66324146      11.95099537
Pd       6.89476706       9.64088005      11.95142944
Pd       9.64982872       9.59779534      11.89439304
Pd      12.42487279       9.60955999      11.94161946
Pd       1.35662594      12.44034730      11.98327357
Pd       4.11235312      12.41963751      11.96563836
Pd       6.86816975      12.39901143      11.97280504
Pd       9.63028672      12.36702810      11.91406436
Pd      12.39468573      12.36372907      11.99273855
Pd       0.02146258       0.22719842      13.94635841
Pd       2.79807434       0.05335342      14.00826879
Pd       5.59545171      13.75002245      13.97532170
Pd       8.32642622       0.20864118      14.07675575
Pd      11.01877870       0.09245902      13.87410715
Pd      10.77044408       1.29025467      16.25682370
Pd      12.41407660       2.73984848      14.27502800
Pd       1.46423354       2.95672420      14.47940130
Pd       6.68142944       2.73988123      14.32442760
Pd       9.50158049       2.78786840      14.27421120
Pd      13.74315552       5.35860563      14.01838697
Pd       2.75812763       5.44762422      13.99034327
Pd       5.51738717       5.40301906      13.88138766
Pd       8.21400732       5.34621074      13.95150828
Pd      10.97515321       5.23222282      13.99498759
Pd      13.73781024       8.24240225      13.94280223
Pd       2.79161041       8.29480075      13.90602568
Pd       5.48181680       8.24005574      14.00137374
Pd       8.21729556       8.27862932      13.89395385
Pd      10.98124065       8.22561508      13.96913677
Pd      13.67036243      11.01650580      14.06064997
Pd       2.74978505      11.08485693      13.90818732
Pd       5.49228231      10.97626150      13.88003804
Pd       8.22866739      11.13657511      13.95366470
Pd      10.96113560      10.99566668      13.90856063
Pd      12.19864701       6.69289913      16.03895502
Pd       9.44931156       9.88392817      16.17650346
Pd       1.83383854      12.63386914      16.42932126
Pd       1.54930681       7.12463183      15.88688641
Pd      12.16981992       9.66272532      16.21009356
Pd       7.98807866       1.91585256      16.63543979
Pd       4.61428999       1.44640370      15.95636920
Pd       5.98445749       9.94218307      16.36700668
Pd       4.34517407      12.20225113      15.94687348
Pd      12.06547001      12.45432534      16.09693044
Pd      13.48267224       4.30819937      16.63311968
Pd       2.54180550       4.15483554      17.01177759
Pd       8.86162350       4.48569041      16.51095741
Pd       2.92530434       9.78621371      16.29131792
Pd       6.81227497       6.65456371      15.89443972
Pd       6.85543454      12.85147734      16.39316107
Pd       9.51110999       7.03766378      16.05249804
Pd       5.60944428       4.32889889      16.42705639
Pd       0.48964607       1.51240116      16.88735111
Pd       4.19159854       7.14923860      16.33108587
O        7.25275977       3.64328813      17.25791646
O       10.88118035      11.06855125      16.76564246
O       13.68893507      13.55992225      15.95216972
O        9.07792225       1.70698516      18.51668125
O       10.33541252       1.46937800      18.30677375
O        4.47443171       8.92094499      17.09521941
O        3.18741142       1.90351099      14.64763320
O        1.02897263       3.14665376      17.84351847
O        9.01414971       0.28863741      16.03996153
O        1.41444208      10.88755330      15.59146599
O        2.11304595       0.52692013      17.35270501
O        1.14767648       5.60729372      17.14158609
O        3.85395691       5.23814346      15.86226463
O        8.07818859       8.41855171      16.03085770
O        4.17350171       3.02013592      17.17114494
O       12.47128949       2.45498127      16.33491749
O       10.65299001       5.37504668      16.07877646
O       13.49673024       8.18081647      16.07561863
O        6.17629257       0.82383663      17.00960749
O        7.60038864      11.06777538      15.96545477
