115
Lattice="13.75323 0.0 0.0 0.0 13.75323 0.0 0.0 0.0 23.89" Properties=species:S:1:pos:R:3 entry_id=13 rank=17 energy=-572.8245849609375 parent_id=12 pbc="T T F"
Pd       0.00000000       0.00000000      10.00000000
Pd       2.75064538       0.00000000      10.00000000
Pd       5.50129076       0.00000000      10.00000000
Pd       8.25193614       0.00000000      10.00000000
Pd      11.00258152       0.00000000      10.00000000
Pd       0.00000000       2.75064538      10.00000000
Pd       2.75064538       2.75064538      10.00000000
Pd       5.50129076       2.75064538      10.00000000
Pd       8.25193614       2.75064538      10.00000000
Pd      11.00258152       2.75064538      10.00000000
Pd       0.00000000       5.50129076      10.00000000
Pd       2.75064538       5.50129076      10.00000000
Pd       5.50129076       5.50129076      10.00000000
Pd       8.25193614       5.50129076      10.00000000
Pd      11.00258152       5.50129076      10.00000000
Pd       0.00000000       8.25193614      10.00000000
Pd       2.75064538       8.25193614      10.00000000
Pd       5.50129076       8.25193614      10.00000000
Pd       8.25193614       8.25193614      10.00000000
Pd      11.00258152       8.25193614      10.00000000
Pd       0.00000000      11.00258152      10.00000000
Pd       2.75064538      11.00258152      10.00000000
Pd       5.50129076      11.00258152      10.00000000
Pd       8.25193614      11.00258152      10.00000000
Pd      11.00258152      11.00258152      10.00000000
Pd       1.36911704       1.43781713      11.98620119
Pd       4.12997603       1.37766188      11.92067197
Pd       6.88095388       1.39706680      12.05824184
Pd       9.57512057       1.39592898      11.89594876
Pd      12.38684272       1.37174114      11.92044161
Pd       1.35864386       4.15071171      11.95762757
Pd       4.09313151       4.14228901      11.96158599
Pd       6.83968967       4.06061388      12.08383055
Pd       9.56728621       4.13975942      11.94281254
Pd      12.36578195       4.13265160      11.93417299
Pd       1.37110082       6.89256210      11.94010419
Pd       4.13935064       6.87026939      11.96482277
Pd       6.87097415       6.85831372      11.95140951
Pd       9.64205429       6.82915781      11.94515418
Pd      12.39111484       6.85622887      11.94896407
Pd       1.37732600       9.66823292      11.96594624
Pd       4.11777592       9.66324146      11.95099537
Pd       6.89476706       9.64088005      11.95142944
Pd       9.64982872       9.59779534      11.89439304
Pd      12.42487279       9.60955999      11.94161946
Pd       1.37533391      12.45050572      11.98779124
Pd       4.13247737      12.41877759      11.99609999
Pd       6.86816975      12.39901143      11.97280504
Pd       9.63028672      12.36702810      11.91406436
Pd      12.40552379      12.35485435      11.98699658
Pd       0.03729186       0.20172580      13.97769625
Pd       2.81848899       0.13008382      14.04615628
Pd       5.55442488       0.03903609      14.04506020
Pd       8.34884046       0.12901550      14.05539056
Pd      11.02601773       0.08894229      13.83284799
Pd      10.66937953       1.20175162      16.18601031
Pd      12.37702570       2.70180746      14.24318874
Pd       1.41635990       2.95453363      14.39701477
Pd       5.13330258       2.76523785      14.00987895
Pd       9.23357676       2.80301306      14.24511719
Pd      13.73188373       5.37742989      14.01257647
Pd       2.72767026       5.47646306      13.98495454
Pd       5.57003103       5.50850641      14.04193423
Pd       8.29541209       5.53850821      13.89372190
Pd      10.98777311       5.16036043      14.01143247
Pd      13.69667059       8.23026461      13.90072861
Pd       2.75013912       8.28664038      13.91423301
Pd       5.47513150       8.26806845      13.96114012
Pd       8.25270166       8.28906949      13.91174422
Pd      10.95217813       8.08373720      14.03991364
Pd      13.69716072      10.99870302      14.02412107
Pd       2.76342536      11.12330417      13.93021883
Pd       5.50051021      10.99051810      13.91456037
Pd       8.20937633      11.03553807      13.99174905
Pd      10.92513520      10.93394060      13.85932907
Pd      12.39350988       6.87907957      16.17543597
Pd       9.45513242       9.36690812      16.28871597
Pd       1.81106356      12.60097434      16.44384749
Pd       1.38107171       7.17512642      15.91628473
Pd      12.25645269       9.61854108      16.09287770
Pd       7.71649409       1.71597386      16.82622816
Pd       4.00157535       0.85162780      16.75558334
Pd       6.03244107       9.71821183      16.35061012
Pd       4.31937343      12.01271891      16.07721639
Pd      12.06058328      12.39152281      15.97710028
Pd      13.12530467       4.26997766      16.77104347
Pd       2.25839030       4.09895879      17.01209923
Pd       7.87564483       4.38809061      16.11544125
Pd       2.86931416       9.70141243      16.27948584
Pd       6.88385972       6.99141409      15.91079176
Pd       6.88834794      12.57293694      16.12678972
Pd       9.68135773       6.47136092      16.29998206
Pd       5.23171595       4.10149364      16.48182916
Pd       0.39925983       1.47359886      16.86809494
Pd       4.10772148       7.03212207      16.24675755
O        6.76717493       3.32436185      17.40194149
O       10.70914203      10.92250374      15.92445160
O       13.68377920      13.48718172      16.00660904
O        9.11222513       2.34080114      18.19862670
O       10.27670390       1.74273553      18.13618435
O        4.43042962       8.80021769      17.02068036
O        3.22967727       2.07297944      14.50635756
O        0.72994023       3.15333963      17.83265015
O        8.87457794       0.25421246      16.08895604
O        1.40021737      10.86381768      15.59378413
O        2.14192517       0.53830328      17.39975373
O        0.91390387       5.58920026      17.14124170
O        3.60418987       5.12782636      15.88707209
O        8.41156640       7.81986137      16.94830429
O        3.82765627       2.84587204      17.27355498
O       12.36489922       2.33574095      16.28979146
O       11.27390637       5.23372084      16.04074831
O       13.59213528       8.33616226      16.72080354
O        5.95835844       0.65694526      16.12079096
O        7.72297323      10.74240884      16.05948550
