115
Lattice="13.75323 0.0 0.0 0.0 13.75323 0.0 0.0 0.0 23.89" Properties=species:S:1:pos:R:3 entry_id=26 rank=25 energy=-572.700439453125 parent_id=25 pbc="T T F"
Pd       0.00000000       0.00000000      10.00000000
Pd       2.75064538       0.00000000      10.00000000
Pd       5.50129076       0.00000000      10.00000000
Pd       8.25193614       0.00000000      10.00000000
Pd      11.00258152       0.00000000      10.00000000
Pd       0.00000000       2.75064538      10.00000000
Pd       2.75064538       2.75064538      10.00000000
Pd       5.50129076       2.75064538      10.00000000
Pd       8.25193614       2.75064538      10.00000000
Pd      11.00258152       2.75064538      10.00000000
Pd       0.00000000       5.50129076      10.00000000
Pd       2.75064538       5.50129076      10.00000000
Pd       5.50129076       5.50129076      10.00000000
Pd       8.25193614       5.50129076      10.00000000
Pd      11.00258152       5.50129076      10.00000000
Pd       0.00000000       8.25193614      10.00000000
Pd       2.75064538       8.25193614      10.00000000
Pd       5.50129076       8.25193614      10.00000000
Pd       8.25193614       8.25193614      10.00000000
Pd      11.00258152       8.25193614      10.00000000
Pd       0.00000000      11.00258152      10.00000000
Pd       2.75064538      11.00258152      10.00000000
Pd       5.50129076      11.00258152      10.00000000
Pd       8.25193614      11.00258152      10.00000000
Pd      11.00258152      11.00258152      10.00000000
Pd       1.39079159       1.44044096      11.98134826
Pd       4.15645491       1.42475403      12.02059515
Pd       6.88152073       1.37440708      11.98537007
Pd       9.57512057       1.39592898      11.89594876
Pd      12.38684272       1.37174114      11.92044161
Pd       1.37014814       4.14050970      11.98039941
Pd       4.09824546       4.09067949      11.98504686
Pd       6.84456395       4.07576150      11.95034145
Pd       9.56728621       4.13975942      11.94281254
Pd      12.36578195       4.13265160      11.93417299
Pd       1.37110082       6.89256210      11.94010419
Pd       4.13935064       6.87026939      11.96482277
Pd       6.87097415       6.85831372      11.95140951
Pd       9.64205429       6.82915781      11.94515418
Pd      12.39111484       6.85622887      11.94896407
Pd       1.36372205       9.65388628      11.96854058
Pd       4.11777592       9.66324146      11.95099537
Pd       6.89476706       9.64088005      11.95142944
Pd       9.64982872       9.59779534      11.89439304
Pd      12.42487279       9.60955999      11.94161946
Pd       1.35082439      12.43484398      11.98154254
Pd       4.10931749      12.41881131      11.96450186
Pd       6.86816975      12.39901143      11.97280504
Pd       9.63028672      12.36702810      11.91406436
Pd      12.39027506      12.36255824      11.99519924
Pd       0.00406630       0.23018290      13.94394044
Pd       2.78019269       0.04927433      13.99480150
Pd       5.57263812       0.00992736      13.98081192
Pd       8.30544280       0.19907221      14.06177513
Pd      11.00279475       0.09080705      13.87532625
Pd      10.71077295       1.30313456      16.24483338
Pd      12.34559950       2.73888311      14.27629775
Pd       1.39634553       2.95303278      14.48218429
Pd       6.55345808       2.73411904      14.31302804
Pd       9.39018777       2.80018250      14.26918264
Pd      13.72133463       5.35484489      14.02108360
Pd       2.73801925       5.44282958      13.99111260
Pd       5.50157406       5.41473391      13.88237228
Pd       8.19792157       5.36644432      13.94652044
Pd      10.95309247       5.23148647      13.99773868
Pd      13.72967318       8.23995979      13.94181827
Pd       2.78751042       8.29104268      13.91546397
Pd       5.47701323       8.24757406      14.00524900
Pd       8.20954055       8.28464232      13.89437083
Pd      10.96997849       8.22438816      13.97110468
Pd      13.65798990      11.01192698      14.06442874
Pd       2.74131358      11.07936788      13.90887198
Pd       5.48363543      10.98665187      13.88078037
Pd       8.21895392      11.13400463      13.95569377
Pd      10.95023515      10.99245717      13.91247437
Pd      12.15936744       6.69546932      16.04299913
Pd       9.41799858       9.89175854      16.18621459
Pd       1.80223523      12.64356797      16.42308487
Pd       1.51904875       7.12863889      15.89387177
Pd      12.13952918       9.66338888      16.21914774
Pd       7.91556106       1.92732573      16.61055744
Pd       4.53366088       1.43365240      15.98181289
Pd       5.95818584       9.95469623      16.37096118
Pd       4.31338486      12.20713972      15.94744536
Pd      12.03236729      12.45600026      16.10061247
Pd      13.41929385       4.31319258      16.64535619
Pd       2.47749423       4.16642420      17.02094143
Pd       8.80831041       4.49939445      16.50610960
Pd       2.90518437       9.79067471      16.29988115
Pd       6.78364276       6.65529520      15.90096663
Pd       6.81400149      12.86440450      16.40069287
Pd       9.47770043       7.04986183      16.05783059
Pd       5.54282907       4.34104557      16.42376893
Pd       0.44064036       1.51872559      16.88798001
Pd       4.16088063       7.15689734      16.33919280
O        7.19143568       3.65702355      17.23738200
O       10.85389992      11.06997592      16.77732041
O       13.65297144      13.56607288      15.94944896
O        9.00267434       1.72542122      18.49360363
O       10.26160795       1.49397389      18.28879624
O        4.45537742       8.92653516      17.10531202
O        3.10708703       1.89241673      14.67631513
O        0.96908161       3.15172779      17.85156494
O        8.95431857       0.30188973      16.02949481
O        1.39783528      10.89118234      15.59269904
O        2.08026720       0.54428983      17.33652660
O        1.08180877       5.61824572      17.15181478
O        3.78997896       5.24910088      15.87494259
O        8.04245884       8.43156164      16.03165355
O        4.10910909       3.03129317      17.17758598
O       12.41575985       2.45898768      16.33757100
O       10.60867551       5.37956388      16.08036960
O       13.46303909       8.17935450      16.07071202
O        6.11113366       0.82602167      17.02332776
O        7.56989050      11.08539664      15.96383520
