115
Lattice="13.75323 0.0 0.0 0.0 13.75323 0.0 0.0 0.0 23.89" Properties=species:S:1:pos:R:3 entry_id=27 rank=13 energy=-572.8818359375 parent_id=26 pbc="T T F"
Pd       0.00000000       0.00000000      10.00000000
Pd       2.75064538       0.00000000      10.00000000
Pd       5.50129076       0.00000000      10.00000000
Pd       8.25193614       0.00000000      10.00000000
Pd      11.00258152       0.00000000      10.00000000
Pd       0.00000000       2.75064538      10.00000000
Pd       2.75064538       2.75064538      10.00000000
Pd       5.50129076       2.75064538      10.00000000
Pd       8.25193614       2.75064538      10.00000000
Pd      11.00258152       2.75064538      10.00000000
Pd       0.00000000       5.50129076      10.00000000
Pd       2.75064538       5.50129076      10.00000000
Pd       5.50129076       5.50129076      10.00000000
Pd       8.25193614       5.50129076      10.00000000
Pd      11.00258152       5.50129076      10.00000000
Pd       0.00000000       8.25193614      10.00000000
Pd       2.75064538       8.25193614      10.00000000
Pd       5.50129076       8.25193614      10.00000000
Pd       8.25193614       8.25193614      10.00000000
Pd      11.00258152       8.25193614      10.00000000
Pd       0.00000000      11.00258152      10.00000000
Pd       2.75064538      11.00258152      10.00000000
Pd       5.50129076      11.00258152      10.00000000
Pd       8.25193614      11.00258152      10.00000000
Pd      11.00258152      11.00258152      10.00000000
Pd       1.38963349       1.44993872      12.00340797
Pd       4.15562142       1.43086922      12.01735585
Pd       6.88241672       1.38050934      11.98852906
Pd       9.57512057       1.39592898      11.89594876
Pd      12.38684272       1.37174114      11.92044161
Pd       1.37078940       4.14580657      11.99226037
Pd       4.10154762       4.10264258      12.00335150
Pd       6.83983831       4.08923451      11.96423465
Pd       9.56728621       4.13975942      11.94281254
Pd      12.36578195       4.13265160      11.93417299
Pd       1.37110082       6.89256210      11.94010419
Pd       4.13935064       6.87026939      11.96482277
Pd       6.87097415       6.85831372      11.95140951
Pd       9.64205429       6.82915781      11.94515418
Pd      12.39111484       6.85622887      11.94896407
Pd       1.37173878       9.66492035      11.96103972
Pd       4.11777592       9.66324146      11.95099537
Pd       6.89476706       9.64088005      11.95142944
Pd       9.64982872       9.59779534      11.89439304
Pd      12.42487279       9.60955999      11.94161946
Pd       1.36066756      12.45165897      11.98677751
Pd       4.11405606      12.42402183      11.96615578
Pd       6.86816975      12.39901143      11.97280504
Pd       9.63028672      12.36702810      11.91406436
Pd      12.39727693      12.36154398      11.99593233
Pd       0.02931459       0.21365002      13.97527468
Pd       2.80702726       0.06304826      14.01829573
Pd       5.59888914       0.00150135      13.97205861
Pd       8.32996826       0.19588192      14.07276007
Pd      11.02208258       0.11623453      13.85619720
Pd      10.81538889       1.28734040      16.25118777
Pd      12.45722338       2.74007306      14.28346741
Pd       1.50240879       2.97812574      14.49609354
Pd       6.70735978       2.74683675      14.32838897
Pd       9.53107692       2.78354140      14.26390961
Pd      13.73417336       5.37577627      14.03441571
Pd       2.74364850       5.48570573      14.00569593
Pd       5.53908175       5.47159814      13.91703321
Pd       8.22037196       5.38004258      13.97840919
Pd      10.98963858       5.24479336      13.96741048
Pd      13.70796254       8.23200515      13.90972334
Pd       2.76558673       8.29756825      13.91518598
Pd       5.48469683       8.27983622      13.96886259
Pd       8.26007118       8.24892658      13.90365490
Pd      10.97246354       8.13907840      13.99121582
Pd      13.69439018      10.98978287      14.04657002
Pd       2.75957813      11.09603267      13.90964733
Pd       5.48987755      10.98966358      13.88701558
Pd       8.20612228      11.08166535      13.95384537
Pd      10.93493344      10.96033300      13.87303806
Pd      12.22852958       6.66560322      16.17128218
Pd       9.32634154       9.66626939      16.26969115
Pd       1.86155969      12.63005266      16.45540002
Pd       1.40567258       7.17160134      15.87844280
Pd      12.22547633       9.50014178      16.10539144
Pd       8.02896287       1.89673360      16.61917389
Pd       4.65632342       1.43408752      15.97414857
Pd       6.00031428       9.88889573      16.36323060
Pd       4.36794024      12.19575196      15.96096848
Pd      12.14998012      12.42201160      15.98100612
Pd      13.54236593       4.29106531      16.64565944
Pd       2.61137405       4.15799683      17.00404932
Pd       8.91557427       4.44793415      16.47984599
Pd       2.90962049       9.79472911      16.29185020
Pd       6.84147735       6.88471570      15.86579987
Pd       6.90004050      12.80031959      16.37097069
Pd       9.51182911       7.01865801      16.23463497
Pd       5.67360741       4.36528850      16.40339856
Pd       0.54226117       1.51178515      16.92591815
Pd       4.15935293       7.16563072      16.29648740
O        7.30028347       3.63472291      17.23223918
O       10.82859798      10.95530042      15.95464562
O       13.73960603      13.55740972      16.00952996
O        9.10852204       1.68422502      18.50361812
O       10.36741872       1.44880772      18.29769595
O        4.45227685       8.92164990      17.08904663
O        3.19686229       1.89085484      14.70532225
O        1.10663714       3.14838229      17.86021526
O        9.06489409       0.27247702      16.02097365
O        1.41267005      10.90271911      15.59083557
O        2.15687086       0.50964192      17.39950834
O        1.20872742       5.59182396      17.12604462
O        3.89322741       5.24729417      15.83757167
O        8.07271140       8.24492047      16.87878766
O        4.26080142       3.04367599      17.16276840
O       12.52194284       2.45134625      16.34819690
O       10.67362023       5.36425924      16.00433620
O       13.48160831       8.08834969      16.66998330
O        6.23461805       0.78274995      16.98499558
O        7.63457532      10.98993396      15.97333786
