115
Lattice="13.75323 0.0 0.0 0.0 13.75323 0.0 0.0 0.0 23.89" Properties=species:S:1:pos:R:3 entry_id=18 rank=6 energy=-572.9597778320312 parent_id=8 pbc="T T F"
Pd       0.00000000       0.00000000      10.00000000
Pd       2.75064538       0.00000000      10.00000000
Pd       5.50129076       0.00000000      10.00000000
Pd       8.25193614       0.00000000      10.00000000
Pd      11.00258152       0.00000000      10.00000000
Pd       0.00000000       2.75064538      10.00000000
Pd       2.75064538       2.75064538      10.00000000
Pd       5.50129076       2.75064538      10.00000000
Pd       8.25193614       2.75064538      10.00000000
Pd      11.00258152       2.75064538      10.00000000
Pd       0.00000000       5.50129076      10.00000000
Pd       2.75064538       5.50129076      10.00000000
Pd       5.50129076       5.50129076      10.00000000
Pd       8.25193614       5.50129076      10.00000000
Pd      11.00258152       5.50129076      10.00000000
Pd       0.00000000       8.25193614      10.00000000
Pd       2.75064538       8.25193614      10.00000000
Pd       5.50129076       8.25193614      10.00000000
Pd       8.25193614       8.25193614      10.00000000
Pd      11.00258152       8.25193614      10.00000000
Pd       0.00000000      11.00258152      10.00000000
Pd       2.75064538      11.00258152      10.00000000
Pd       5.50129076      11.00258152      10.00000000
Pd       8.25193614      11.00258152      10.00000000
Pd      11.00258152      11.00258152      10.00000000
Pd       1.34780524       1.41256983      11.95625626
Pd       4.11737324       1.48344112      12.09153624
Pd       6.87375675       1.37776076      11.96467022
Pd       9.57512057       1.39592898      11.89594876
Pd      12.38684272       1.37174114      11.92044161
Pd       1.36429712       4.15108838      11.94968944
Pd       4.10970789       4.13655246      11.98261205
Pd       6.84208896       4.09674023      11.94440478
Pd       9.56728621       4.13975942      11.94281254
Pd      12.36578195       4.13265160      11.93417299
Pd       1.37110082       6.89256210      11.94010419
Pd       4.13935064       6.87026939      11.96482277
Pd       6.87097415       6.85831372      11.95140951
Pd       9.64205429       6.82915781      11.94515418
Pd      12.39111484       6.85622887      11.94896407
Pd       1.37640852       9.66082585      11.96738887
Pd       4.11777592       9.66324146      11.95099537
Pd       6.89476706       9.64088005      11.95142944
Pd       9.64982872       9.59779534      11.89439304
Pd      12.42487279       9.60955999      11.94161946
Pd       1.38408383      12.42871399      11.99162358
Pd       4.13273191      12.44857423      11.99717351
Pd       6.86816975      12.39901143      11.97280504
Pd       9.63028672      12.36702810      11.91406436
Pd      12.41494936      12.35458250      11.99324484
Pd       0.07142987       0.18358842      13.98477980
Pd       2.83904123       0.00780457      14.16743274
Pd       5.58832264       0.10701126      14.00195136
Pd       8.38456869       0.15756603      14.04083180
Pd      11.06462518       0.08738335      13.84437689
Pd      10.88759531       1.20533307      16.24455423
Pd      12.51425669       2.73096124      14.28055417
Pd       1.50697815       2.92999496      14.35398664
Pd       6.96361828       2.78732685      14.28637519
Pd       9.70355389       2.75122131      14.25311688
Pd      13.74321622       5.36831362      14.02488204
Pd       2.73826676       5.47409409      13.98700391
Pd       5.55908059       5.45209725      13.92369935
Pd       8.24168962       5.38214784      13.96862324
Pd      11.00531945       5.25171611      13.96787821
Pd      13.71333046       8.21809636      13.91379002
Pd       2.77092191       8.27896000      13.90390644
Pd       5.49366431       8.27246864      13.96800553
Pd       8.26186959       8.22971941      13.90945769
Pd      10.97293959       8.12630592      14.00387640
Pd      13.70383056      10.96918236      14.04573230
Pd       2.76449716      11.07801905      13.94943418
Pd       5.49711482      11.00502336      13.90421742
Pd       8.21066464      11.03045900      13.98187232
Pd      10.93553558      10.95027506      13.87153048
Pd      12.22164651       6.59414550      16.18241087
Pd       9.37217340       9.59882800      16.28982162
Pd       1.85163330      12.51009722      16.51624009
Pd       1.41154829       7.13735934      15.87791171
Pd      12.24276203       9.44468841      16.11998167
Pd       8.10956392       1.76515723      16.62441571
Pd       4.09864511       0.80547973      16.70020400
Pd       6.03310386       9.74532993      16.37118159
Pd       4.35994123      11.95550933      16.10325460
Pd      12.18625447      12.37155936      15.98697594
Pd      13.59831656       4.24410094      16.61115434
Pd       2.64230819       4.03412931      16.92962572
Pd       8.87633774       4.36447240      16.45853988
Pd       2.87454675       9.66103752      16.30379843
Pd       6.85293684       6.84157653      15.87574233
Pd       6.87994922      12.70307041      16.09745984
Pd       9.50898189       6.94344231      16.24948232
Pd       5.67992375       4.16844932      16.34576313
Pd       0.60756247       1.45521554      16.89154706
Pd       4.16865202       7.02966194      16.23712088
O        7.29156424       3.46275555      17.20901385
O       10.85578693      10.90973311      15.95046877
O        0.03403559      13.49494972      16.02367974
O        9.17081821       1.61659693      18.46934523
O       10.43546936       1.36662767      18.28688302
O        4.44817080       8.78277062      17.04366682
O        3.20775291       1.97009975      13.93161609
O        1.14586438       3.08406428      17.83426163
O        9.14354872       0.18221272      15.99510519
O        1.38048317      10.80176639      15.64037304
O        2.29139559       0.45416509      17.43581502
O        1.28003272       5.52862092      17.08975655
O        3.93461134       5.10177554      15.77163002
O        8.10193605       8.18928257      16.90820692
O        4.21190729       2.81182026      17.06497648
O       12.59055802       2.38336726      16.33908689
O       10.65099378       5.29532350      16.00819839
O       13.47297146       8.01482461      16.69455099
O        5.95482792       0.72802912      16.00412394
O        7.66687839      10.88009357      16.05098389
