115
Lattice="13.75323 0.0 0.0 0.0 13.75323 0.0 0.0 0.0 23.89" Properties=species:S:1:pos:R:3 entry_id=5 rank=9 energy=-572.95263671875 parent_id=4 pbc="T T F"
Pd       0.00000000       0.00000000      10.00000000
Pd       2.75064538       0.00000000      10.00000000
Pd       5.50129076       0.00000000      10.00000000
Pd       8.25193614       0.00000000      10.00000000
Pd      11.00258152       0.00000000      10.00000000
Pd       0.00000000       2.75064538      10.00000000
Pd       2.75064538       2.75064538      10.00000000
Pd       5.50129076       2.75064538      10.00000000
Pd       8.25193614       2.75064538      10.00000000
Pd      11.00258152       2.75064538      10.00000000
Pd       0.00000000       5.50129076      10.00000000
Pd       2.75064538       5.50129076      10.00000000
Pd       5.50129076       5.50129076      10.00000000
Pd       8.25193614       5.50129076      10.00000000
Pd      11.00258152       5.50129076      10.00000000
Pd       0.00000000       8.25193614      10.00000000
Pd       2.75064538       8.25193614      10.00000000
Pd       5.50129076       8.25193614      10.00000000
Pd       8.25193614       8.25193614      10.00000000
Pd      11.00258152       8.25193614      10.00000000
Pd       0.00000000      11.00258152      10.00000000
Pd       2.75064538      11.00258152      10.00000000
Pd       5.50129076      11.00258152      10.00000000
Pd       8.25193614      11.00258152      10.00000000
Pd      11.00258152      11.00258152      10.00000000
Pd       1.35004443       1.40994171      11.95689800
Pd       4.12039459       1.49149804      12.08851105
Pd       6.87605779       1.37962750      11.96786985
Pd       9.57512057       1.39592898      11.89594876
Pd      12.38684272       1.37174114      11.92044161
Pd       1.36342236       4.15080110      11.94976581
Pd       4.10687409       4.14227493      11.98287495
Pd       6.83866989       4.09457839      11.94842167
Pd       9.56728621       4.13975942      11.94281254
Pd      12.36578195       4.13265160      11.93417299
Pd       1.37110082       6.89256210      11.94010419
Pd       4.13935064       6.87026939      11.96482277
Pd       6.87097415       6.85831372      11.95140951
Pd       9.64205429       6.82915781      11.94515418
Pd      12.39111484       6.85622887      11.94896407
Pd       1.37457845       9.66111037      11.96604665
Pd       4.11777592       9.66324146      11.95099537
Pd       6.89476706       9.64088005      11.95142944
Pd       9.64982872       9.59779534      11.89439304
Pd      12.42487279       9.60955999      11.94161946
Pd       1.37795481      12.42821212      11.98978356
Pd       4.12826490      12.45050338      11.99089250
Pd       6.86816975      12.39901143      11.97280504
Pd       9.63028672      12.36702810      11.91406436
Pd      12.41285774      12.35393217      11.99396012
Pd       0.06614208       0.18373152      13.98648902
Pd       2.83270657       0.02819617      14.15387406
Pd       5.58079133       0.09194991      13.98448277
Pd       8.38938294       0.16770954      14.03958238
Pd      11.06713556       0.08951502      13.84749896
Pd      10.90767501       1.23126514      16.24172817
Pd      12.53177346       2.74203397      14.27611976
Pd       1.51962246       2.94167660      14.35227658
Pd       6.97692163       2.79166012      14.29551827
Pd       9.72288532       2.75997042      14.24783201
Pd      13.74580504       5.37573512      14.02745191
Pd       2.73808225       5.48745149      13.99127460
Pd       5.55988290       5.45815924      13.92355097
Pd       8.24306596       5.39667565      13.95917061
Pd      11.00803159       5.26268283      13.96575052
Pd      13.70985211       8.22050919      13.91359671
Pd       2.76846992       8.29250139      13.90565850
Pd       5.49297285       8.27984188      13.96574614
Pd       8.26138214       8.24706500      13.91187856
Pd      10.96869846       8.13361061      14.00710074
Pd      13.70902328      10.97095353      14.05217394
Pd       2.76650341      11.09233739      13.94279713
Pd       5.50004352      11.00582133      13.89760969
Pd       8.21411532      11.04656929      13.98745856
Pd      10.94156660      10.95329453      13.87586225
Pd      12.20922197       6.60607156      16.18047489
Pd       9.36583734       9.63781054      16.30147457
Pd       1.86595619      12.53501705      16.51405593
Pd       1.41646914       7.16196430      15.88423099
Pd      12.24373714       9.45321664      16.12206764
Pd       8.12932435       1.78175690      16.62569046
Pd       4.09799556       0.85116314      16.67961847
Pd       6.05514929       9.79883706      16.36548417
Pd       4.37534633      12.00126982      16.07920624
Pd      12.20191679      12.38586833      15.99460666
Pd      13.59756722       4.27361940      16.62243435
Pd       2.63830213       4.07345069      16.93974735
Pd       8.85907116       4.39387921      16.44867051
Pd       2.89948048       9.69137157      16.29772650
Pd       6.85270235       6.85318485      15.86990139
Pd       6.88477275      12.77929018      16.10563040
Pd       9.49491964       6.98376334      16.25905720
Pd       5.67728814       4.19140307      16.34716027
Pd       0.61726692       1.48311142      16.89157312
Pd       4.17633035       7.06549679      16.23897020
O        7.28898620       3.47377957      17.20363540
O       10.86797386      10.92675253      15.95710218
O        0.04676997      13.51553895      16.02995805
O        9.18734631       1.63335359      18.46793918
O       10.45548444       1.40100132      18.28390944
O        4.47705507       8.81941696      17.03561886
O        3.22486662       1.99016371      13.93307427
O        1.14778693       3.11172255      17.84132745
O        9.16992983       0.20445454      15.99027022
O        1.39657019      10.82384651      15.64046983
O        2.30085830       0.48346069      17.43022393
O        1.27215357       5.56314921      17.10604707
O        3.93355656       5.13697867      15.77918569
O        8.07764949       8.23530516      16.90222039
O        4.20652455       2.85138509      17.07634217
O       12.60336431       2.41457699      16.33751841
O       10.62697864       5.32951045      16.00230724
O       13.46781975       8.01809693      16.69392221
O        5.94562172       0.80080907      15.96021498
O        7.67711098      10.95414623      16.05959619
