115
Lattice="13.75323 0.0 0.0 0.0 13.75323 0.0 0.0 0.0 23.89" Properties=species:S:1:pos:R:3 entry_id=20 rank=1 energy=-573.0091552734375 parent_id=19 pbc="T T F"
Pd       0.00000000       0.00000000      10.00000000
Pd       2.75064538       0.00000000      10.00000000
Pd       5.50129076       0.00000000      10.00000000
Pd       8.25193614       0.00000000      10.00000000
Pd      11.00258152       0.00000000      10.00000000
Pd       0.00000000       2.75064538      10.00000000
Pd       2.75064538       2.75064538      10.00000000
Pd       5.50129076       2.75064538      10.00000000
Pd       8.25193614       2.75064538      10.00000000
Pd      11.00258152       2.75064538      10.00000000
Pd       0.00000000       5.50129076      10.00000000
Pd       2.75064538       5.50129076      10.00000000
Pd       5.50129076       5.50129076      10.00000000
Pd       8.25193614       5.50129076      10.00000000
Pd      11.00258152       5.50129076      10.00000000
Pd       0.00000000       8.25193614      10.00000000
Pd       2.75064538       8.25193614      10.00000000
Pd       5.50129076       8.25193614      10.00000000
Pd       8.25193614       8.25193614      10.00000000
Pd      11.00258152       8.25193614      10.00000000
Pd       0.00000000      11.00258152      10.00000000
Pd       2.75064538      11.00258152      10.00000000
Pd       5.50129076      11.00258152      10.00000000
Pd       8.25193614      11.00258152      10.00000000
Pd      11.00258152      11.00258152      10.00000000
Pd       1.37887009       1.45178312      12.00047753
Pd       4.13147842       1.38762415      11.93083975
Pd       6.87910445       1.37550365      12.00042959
Pd       9.57512057       1.39592898      11.89594876
Pd      12.38684272       1.37174114      11.92044161
Pd       1.34877675       4.15756894      11.97102789
Pd       4.07289288       4.12319431      11.98318814
Pd       6.82537167       4.10548541      11.98997764
Pd       9.56728621       4.13975942      11.94281254
Pd      12.36578195       4.13265160      11.93417299
Pd       1.37110082       6.89256210      11.94010419
Pd       4.13935064       6.87026939      11.96482277
Pd       6.87097415       6.85831372      11.95140951
Pd       9.64205429       6.82915781      11.94515418
Pd      12.39111484       6.85622887      11.94896407
Pd       1.37781456       9.67316236      11.97211042
Pd       4.11777592       9.66324146      11.95099537
Pd       6.89476706       9.64088005      11.95142944
Pd       9.64982872       9.59779534      11.89439304
Pd      12.42487279       9.60955999      11.94161946
Pd       1.39124299      12.45668106      11.99288983
Pd       4.13786139      12.42258510      11.99346077
Pd       6.86816975      12.39901143      11.97280504
Pd       9.63028672      12.36702810      11.91406436
Pd      12.42288986      12.34325180      11.97973253
Pd       0.09167563       0.17164085      13.97507624
Pd       2.87508286       0.15636390      14.06643785
Pd       5.60620829       0.02222136      14.02538607
Pd       8.42355949       0.07690916      14.05528910
Pd      11.08847843       0.04790158      13.82107184
Pd      10.94880374       1.32892973      16.08267393
Pd      12.68960029       2.76005945      14.18644354
Pd       1.66355260       2.98824178      14.39668800
Pd       5.34189136       2.75626527      13.99760702
Pd       8.15466035       2.81359961      14.00516033
Pd      13.74741424       5.39922130      14.03464215
Pd       2.74933253       5.52306690      13.99590424
Pd       5.55566368       5.53854109      13.94389470
Pd       8.24861660       5.51723958      13.98126885
Pd      10.99841180       5.21919867      13.95463150
Pd      13.70504362       8.23016334      13.91619195
Pd       2.75671514       8.31752261      13.92411166
Pd       5.48054450       8.29235817      13.97848788
Pd       8.25172791       8.27259421      13.92288589
Pd      10.96045204       8.11846214      14.00598594
Pd      13.71231321      10.98308678      14.04363631
Pd       2.78103388      11.14665711      13.94231292
Pd       5.50802927      10.99336396      13.91205708
Pd       8.21970235      11.02887445      13.98096360
Pd      10.94413906      10.94204784      13.87858650
Pd      12.15959477       6.56013195      16.15949859
Pd       9.39780133       9.62033542      16.31512682
Pd       1.91630447      12.60963734      16.48027869
Pd       1.38850600       7.16868600      15.90153305
Pd      12.23029324       9.45087603      16.10938742
Pd       7.89279737       1.84765199      16.67765743
Pd       4.18391903       0.90678207      16.79024974
Pd       6.04455416       9.80072806      16.39022182
Pd       4.40806400      12.05993253      16.08023314
Pd      12.21446931      12.40579541      15.97555853
Pd      13.57325063       4.26710324      16.61394546
Pd       2.56112362       4.11585530      17.05831993
Pd       8.73658538       4.42567254      16.46245611
Pd       2.90199830       9.75371612      16.30143504
Pd       6.82161866       6.91288301      15.92494204
Pd       6.94534568      12.73259166      16.15659947
Pd       9.49405181       6.94948508      16.24450912
Pd       5.50639755       4.29629242      16.36477319
Pd       0.64548831       1.49074154      16.89322695
Pd       4.12211423       7.12116099      16.29153748
O        7.08676279       3.57143739      17.19628218
O       10.87470386      10.94634650      15.96052588
O        0.06888953      13.52667524      16.01649349
O        9.36215137       2.79056591      17.87981215
O       10.58299115       2.27255599      17.85411620
O        4.45327597       8.87209367      17.08067266
O        3.44537909       2.07630160      14.52549166
O        1.07886832       3.11169311      17.90827684
O        9.13802667       0.42973724      16.00047744
O        1.42562862      10.89763277      15.60868685
O        2.34627098       0.52565959      17.45090548
O        1.18119293       5.59069535      17.16286010
O        3.77811687       5.20826635      15.85552104
O        8.13314370       8.21203247      16.94610981
O        4.16965310       2.92564490      17.23539790
O       12.68551867       2.40212885      16.20549305
O       10.57753649       5.24495559      15.96716150
O       13.41117403       7.98203009      16.67190978
O        6.10231779       0.80416068      16.12471140
O        7.69706318      10.89864495      16.05306892
