115
Lattice="13.75323 0.0 0.0 0.0 13.75323 0.0 0.0 0.0 23.89" Properties=species:S:1:pos:R:3 entry_id=16 rank=23 energy=-572.7144775390625 parent_id=15 pbc="T T F"
Pd       0.00000000       0.00000000      10.00000000
Pd       2.75064538       0.00000000      10.00000000
Pd       5.50129076       0.00000000      10.00000000
Pd       8.25193614       0.00000000      10.00000000
Pd      11.00258152       0.00000000      10.00000000
Pd       0.00000000       2.75064538      10.00000000
Pd       2.75064538       2.75064538      10.00000000
Pd       5.50129076       2.75064538      10.00000000
Pd       8.25193614       2.75064538      10.00000000
Pd      11.00258152       2.75064538      10.00000000
Pd       0.00000000       5.50129076      10.00000000
Pd       2.75064538       5.50129076      10.00000000
Pd       5.50129076       5.50129076      10.00000000
Pd       8.25193614       5.50129076      10.00000000
Pd      11.00258152       5.50129076      10.00000000
Pd       0.00000000       8.25193614      10.00000000
Pd       2.75064538       8.25193614      10.00000000
Pd       5.50129076       8.25193614      10.00000000
Pd       8.25193614       8.25193614      10.00000000
Pd      11.00258152       8.25193614      10.00000000
Pd       0.00000000      11.00258152      10.00000000
Pd       2.75064538      11.00258152      10.00000000
Pd       5.50129076      11.00258152      10.00000000
Pd       8.25193614      11.00258152      10.00000000
Pd      11.00258152      11.00258152      10.00000000
Pd       1.37345680       1.44947364      11.98534573
Pd       4.11902320       1.37522334      11.92318471
Pd       6.86706689       1.36928720      12.00037354
Pd       9.57512057       1.39592898      11.89594876
Pd      12.38684272       1.37174114      11.92044161
Pd       1.35503111       4.15417888      11.96075504
Pd       4.06912772       4.11062072      11.96636204
Pd       6.82609383       4.08664532      11.96756624
Pd       9.56728621       4.13975942      11.94281254
Pd      12.36578195       4.13265160      11.93417299
Pd       1.37110082       6.89256210      11.94010419
Pd       4.13935064       6.87026939      11.96482277
Pd       6.87097415       6.85831372      11.95140951
Pd       9.64205429       6.82915781      11.94515418
Pd      12.39111484       6.85622887      11.94896407
Pd       1.36831647       9.66421793      11.97778384
Pd       4.11777592       9.66324146      11.95099537
Pd       6.89476706       9.64088005      11.95142944
Pd       9.64982872       9.59779534      11.89439304
Pd      12.42487279       9.60955999      11.94161946
Pd       1.37748822      12.44860055      11.98792706
Pd       4.12894558      12.40959804      11.98872649
Pd       6.86816975      12.39901143      11.97280504
Pd       9.63028672      12.36702810      11.91406436
Pd      12.41292055      12.35231651      11.98168851
Pd       0.05017112       0.20475189      13.94957513
Pd       2.82371626       0.13922921      14.04870667
Pd       5.54531687      13.74802986      14.00493158
Pd       8.36645133       0.06286384      14.00305561
Pd      11.06190656       0.05550052      13.83809048
Pd      10.84617012       1.32935649      16.13806373
Pd      12.55120274       2.75033114      14.23443966
Pd       1.56977404       2.97927565      14.40264971
Pd       5.30273640       2.71992511      13.99631493
Pd       8.13885980       2.79925375      14.00829887
Pd       0.00365201       5.36761769      14.01686995
Pd       2.76753228       5.47680840      14.00182667
Pd       5.52510851       5.46743505      13.89453495
Pd       8.23896744       5.49230598      13.92407528
Pd      10.98610558       5.20977988      13.96607326
Pd      13.73347924       8.23652798      13.95035034
Pd       2.79495595       8.30896792      13.90541712
Pd       5.48922643       8.23970395      14.02403704
Pd       8.21456422       8.29090550      13.91448752
Pd      10.97252678       8.21051820      13.98656619
Pd      13.68077924      11.00946207      14.05934562
Pd       2.75894271      11.13119953      13.93429207
Pd       5.50306444      10.96326479      13.90938894
Pd       8.22815853      11.06034827      13.98992814
Pd      10.96385774      10.98094792      13.90574909
Pd      12.16436942       6.61282383      16.03556306
Pd       9.49860463       9.83237355      16.19315347
Pd       1.84744075      12.61155915      16.46119629
Pd       1.56006194       7.12990679      15.90009476
Pd      12.20420201       9.63448664      16.20061557
Pd       8.03229511       1.77452088      16.57239297
Pd       4.06734526       0.89139253      16.74894599
Pd       6.02555748       9.86107430      16.40606077
Pd       4.35156022      12.04955984      16.06572616
Pd      12.11866762      12.44524313      16.06852149
Pd      13.52299213       4.31658739      16.63205920
Pd       2.54722517       4.10402978      17.04097015
Pd       8.78760711       4.38648447      16.40479163
Pd       2.90756564       9.73217901      16.29564892
Pd       6.80259059       6.60612873      15.95948761
Pd       6.86446687      12.80058125      16.16060888
Pd       9.50183141       6.95577190      16.06589925
Pd       5.57008099       4.20051662      16.37579006
Pd       0.54522771       1.52188698      16.87120996
Pd       4.18775089       7.08488354      16.33175838
O        7.21187424       3.46834860      17.13754200
O       10.92737618      11.05594945      16.72887604
O       13.74862916      13.55963818      15.96371570
O        9.14177073       1.67756617      18.38630870
O       10.41691220       1.52056288      18.16603915
O        4.46890201       8.86295250      17.08019809
O        3.36041004       2.06963823      14.48465592
O        1.02939062       3.13474219      17.87675243
O        9.14566158       0.27060148      15.90945710
O        1.41812207      10.87564035      15.60654758
O        2.23480538       0.54058045      17.42261084
O        1.18157713       5.60619091      17.15657095
O        3.84490936       5.17014597      15.88848896
O        8.11747995       8.37230566      16.06350192
O        4.13569568       2.89290980      17.21629982
O       12.54849997       2.46435655      16.28349499
O       10.60961832       5.27206949      16.02986360
O       13.46707896       8.10062757      16.08702253
O        5.92826748       0.81416608      16.02915663
O        7.65850686      10.99349896      16.08083627
