115
Lattice="13.75323 0.0 0.0 0.0 13.75323 0.0 0.0 0.0 23.89" Properties=species:S:1:pos:R:3 entry_id=3 rank=30 energy=-572.3447265625 parent_id=2 pbc="T T F"
Pd       0.00000000       0.00000000      10.00000000
Pd       2.75064538       0.00000000      10.00000000
Pd       5.50129076       0.00000000      10.00000000
Pd       8.25193614       0.00000000      10.00000000
Pd      11.00258152       0.00000000      10.00000000
Pd       0.00000000       2.75064538      10.00000000
Pd       2.75064538       2.75064538      10.00000000
Pd       5.50129076       2.75064538      10.00000000
Pd       8.25193614       2.75064538      10.00000000
Pd      11.00258152       2.75064538      10.00000000
Pd       0.00000000       5.50129076      10.00000000
Pd       2.75064538       5.50129076      10.00000000
Pd       5.50129076       5.50129076      10.00000000
Pd       8.25193614       5.50129076      10.00000000
Pd      11.00258152       5.50129076      10.00000000
Pd       0.00000000       8.25193614      10.00000000
Pd       2.75064538       8.25193614      10.00000000
Pd       5.50129076       8.25193614      10.00000000
Pd       8.25193614       8.25193614      10.00000000
Pd      11.00258152       8.25193614      10.00000000
Pd       0.00000000      11.00258152      10.00000000
Pd       2.75064538      11.00258152      10.00000000
Pd       5.50129076      11.00258152      10.00000000
Pd       8.25193614      11.00258152      10.00000000
Pd      11.00258152      11.00258152      10.00000000
Pd       1.35870426       1.46381884      12.00264551
Pd       4.10257001       1.37051910      11.92194192
Pd       6.85246111       1.37364728      11.98253702
Pd       9.57512057       1.39592898      11.89594876
Pd      12.38684272       1.37174114      11.92044161
Pd       1.34572686       4.16558865      11.97597008
Pd       4.05893577       4.11053064      11.97164240
Pd       6.82235634       4.10003671      11.95105661
Pd       9.56728621       4.13975942      11.94281254
Pd      12.36578195       4.13265160      11.93417299
Pd       1.37110082       6.89256210      11.94010419
Pd       4.13935064       6.87026939      11.96482277
Pd       6.87097415       6.85831372      11.95140951
Pd       9.64205429       6.82915781      11.94515418
Pd      12.39111484       6.85622887      11.94896407
Pd       1.38192854       9.67854834      11.96741048
Pd       4.11777592       9.66324146      11.95099537
Pd       6.89476706       9.64088005      11.95142944
Pd       9.64982872       9.59779534      11.89439304
Pd      12.42487279       9.60955999      11.94161946
Pd       1.38337038      12.46211151      11.98931640
Pd       4.13103723      12.40652601      11.98361336
Pd       6.86816975      12.39901143      11.97280504
Pd       9.63028672      12.36702810      11.91406436
Pd      12.40612144      12.35443435      11.99556990
Pd       0.01710301       0.17616622      13.96273528
Pd       2.79496024       0.15199677      14.06294959
Pd       5.50232496      13.72927045      13.99295293
Pd       8.31137202       0.08455690      13.95573087
Pd      11.04505030      13.73056457      13.88877020
Pd      11.00843097       1.42775419      16.09940789
Pd      12.64678620       2.76959261      14.23243693
Pd       1.62570453       3.02250955      14.41527475
Pd       5.32749702       2.70563972      13.97803817
Pd       8.13847583       2.82997107      13.96344818
Pd      13.75288048       5.40039356      14.05179412
Pd       2.75842107       5.52811166      14.02725388
Pd       5.52429009       5.45817668      13.89069432
Pd       8.24817955       5.52438495      13.91288743
Pd      11.01159077       5.22080319      13.96640031
Pd      13.73209042       8.21762767      13.90189752
Pd       2.76548231       8.31078345      13.91463530
Pd       5.47407837       8.23176131      14.00651701
Pd       8.21220968       8.34408003      13.97977907
Pd      10.96235775       8.14124872      13.93710401
Pd      13.74951959      11.01960596      14.03228665
Pd       2.80681661      11.14517814      13.93922738
Pd       5.53654612      10.95652231      13.91002620
Pd       8.29132614      11.05516912      13.96720151
Pd      11.02171866      10.93038499      13.98577462
Pd      12.18343934       6.59863623      16.22579563
Pd       9.68420797      10.85332619      16.43881795
Pd       1.88738200      12.58595584      16.49380084
Pd       1.42247397       7.18711322      15.92101575
Pd      12.36205942       9.40482226      15.88012100
Pd       8.20401813       1.71484590      16.43269631
Pd       4.06974462       0.83563142      16.76819055
Pd       6.17256978       9.82908959      16.38189857
Pd       4.40552117      11.98391829      16.11475947
Pd      12.35963850      12.24888277      16.27381193
Pd      13.64942841       4.35384544      16.68051068
Pd       2.64843799       4.10314677      17.05395332
Pd       8.83580449       4.38010528      16.37292050
Pd       2.98150611       9.70433133      16.29234361
Pd       6.80139925       6.56171906      15.97821720
Pd       6.88910539      12.83286945      16.11880468
Pd       9.48118544       7.02012903      16.04687896
Pd       5.64589973       4.13373793      16.34285873
Pd       0.62640603       1.52848755      16.91222105
Pd       4.19600853       7.08661892      16.29405389
O        7.30182866       3.36248585      17.05419588
O       11.47055446      10.73588040      17.12581618
O        0.04893918      13.57898925      15.97806763
O        9.19752459       1.47062099      18.29602924
O       10.49104606       1.48021728      18.12328604
O        4.57334793       8.85152400      17.03960610
O        3.38517414       2.07729560      14.45502494
O        1.14182472       3.13542695      17.91806019
O        9.41137628       0.28199608      15.72379920
O        1.49813349      10.86076688      15.59985458
O        2.26159205       0.49513963      17.49301329
O        1.31351080       5.62227989      17.19921768
O        3.91746670       5.15637823      15.87487797
O        7.93849035       8.27421192      16.09527898
O        4.19899753       2.84840174      17.20043572
O       12.68237980       2.54408845      16.30473415
O       10.60252520       5.34372767      15.99114120
O       13.47316080       7.95069597      16.77961574
O        5.87385349       0.78599661      15.97136774
O        7.75996540      11.04554601      16.03161120
