115
Lattice="13.75323 0.0 0.0 0.0 13.75323 0.0 0.0 0.0 23.89" Properties=species:S:1:pos:R:3 entry_id=9 rank=29 energy=-572.3460693359375 parent_id=3 pbc="T T F"
Pd       0.00000000       0.00000000      10.00000000
Pd       2.75064538       0.00000000      10.00000000
Pd       5.50129076       0.00000000      10.00000000
Pd       8.25193614       0.00000000      10.00000000
Pd      11.00258152       0.00000000      10.00000000
Pd       0.00000000       2.75064538      10.00000000
Pd       2.75064538       2.75064538      10.00000000
Pd       5.50129076       2.75064538      10.00000000
Pd       8.25193614       2.75064538      10.00000000
Pd      11.00258152       2.75064538      10.00000000
Pd       0.00000000       5.50129076      10.00000000
Pd       2.75064538       5.50129076      10.00000000
Pd       5.50129076       5.50129076      10.00000000
Pd       8.25193614       5.50129076      10.00000000
Pd      11.00258152       5.50129076      10.00000000
Pd       0.00000000       8.25193614      10.00000000
Pd       2.75064538       8.25193614      10.00000000
Pd       5.50129076       8.25193614      10.00000000
Pd       8.25193614       8.25193614      10.00000000
Pd      11.00258152       8.25193614      10.00000000
Pd       0.00000000      11.00258152      10.00000000
Pd       2.75064538      11.00258152      10.00000000
Pd       5.50129076      11.00258152      10.00000000
Pd       8.25193614      11.00258152      10.00000000
Pd      11.00258152      11.00258152      10.00000000
Pd       1.35717124       1.45010293      12.00685591
Pd       4.10711132       1.37243904      11.93063805
Pd       6.86020139       1.36921970      11.99768706
Pd       9.57512057       1.39592898      11.89594876
Pd      12.38684272       1.37174114      11.92044161
Pd       1.34381958       4.16019303      11.97360777
Pd       4.05821198       4.11070784      11.97298568
Pd       6.82472024       4.08963165      11.96251700
Pd       9.56728621       4.13975942      11.94281254
Pd      12.36578195       4.13265160      11.93417299
Pd       1.37110082       6.89256210      11.94010419
Pd       4.13935064       6.87026939      11.96482277
Pd       6.87097415       6.85831372      11.95140951
Pd       9.64205429       6.82915781      11.94515418
Pd      12.39111484       6.85622887      11.94896407
Pd       1.38475586       9.67257954      11.96501848
Pd       4.11777592       9.66324146      11.95099537
Pd       6.89476706       9.64088005      11.95142944
Pd       9.64982872       9.59779534      11.89439304
Pd      12.42487279       9.60955999      11.94161946
Pd       1.39063260      12.45540517      11.99287641
Pd       4.13924628      12.41075046      11.99248262
Pd       6.86816975      12.39901143      11.97280504
Pd       9.63028672      12.36702810      11.91406436
Pd      12.41799965      12.34885148      11.98841571
Pd       0.03980963       0.16340905      13.99480192
Pd       2.82057182       0.13825207      14.07546744
Pd       5.53759840      13.72995622      14.02383909
Pd       8.35426336       0.08539140      13.98163483
Pd      11.06238663       0.02696005      13.84206764
Pd      10.90784681       1.33859860      16.12415795
Pd      12.59751683       2.73900354      14.23635450
Pd       1.59125086       2.99289625      14.41323359
Pd       5.32921184       2.70417993      13.99015109
Pd       8.14988708       2.82263484      14.00031439
Pd      13.73381406       5.38475906      14.04772481
Pd       2.73888816       5.50791781      14.02476518
Pd       5.51458550       5.45106595      13.89086462
Pd       8.24515187       5.51962492      13.91297302
Pd      10.99885964       5.20249541      13.98018758
Pd      13.72972029       8.20785408      13.90043874
Pd       2.76104225       8.29479816      13.91662869
Pd       5.47339893       8.22564372      13.99734552
Pd       8.21282175       8.34019833      13.97205584
Pd      10.96284944       8.12727885      13.93464651
Pd       0.00055971      11.00125517      14.01892233
Pd       2.80564231      11.13655357      13.94639046
Pd       5.53687924      10.95353472      13.91262742
Pd       8.28525068      11.05823046      13.97357246
Pd      10.99669479      10.91593048      13.94198820
Pd      12.17283334       6.60945190      16.21673192
Pd       9.78411301      10.84386042      16.47695828
Pd       1.91503043      12.54947979      16.48711605
Pd       1.39958142       7.16490681      15.92812797
Pd      12.35215118       9.42576558      15.86461992
Pd       8.09849958       1.79829467      16.54426217
Pd       4.08846204       0.81008669      16.77292428
Pd       6.23285975       9.80658761      16.36468114
Pd       4.44082274      11.95658356      16.13004505
Pd      12.10604357      12.36965255      16.01367647
Pd      13.57595958       4.27578938      16.63437136
Pd       2.58438756       4.06067204      17.03429399
Pd       8.79146058       4.43883143      16.41491543
Pd       2.99873291       9.68705929      16.27959097
Pd       6.78459628       6.54279352      15.97539593
Pd       6.93071452      12.77358211      16.14260303
Pd       9.46814868       7.04757141      16.05072551
Pd       5.58266394       4.15871990      16.36728560
Pd       0.60166904       1.45986214      16.89508949
Pd       4.17672171       7.06915251      16.27380428
O        7.24319362       3.46371285      17.13413464
O       11.58806607      10.79445838      17.15355452
O        0.05254917      13.48731917      16.01624262
O        9.18592459       1.63651928      18.36858238
O       10.46468300       1.50174012      18.15474256
O        4.60896423       8.83576915      16.99734824
O        3.37399082       2.07542539      14.43028014
O        1.07958672       3.08444806      17.88740960
O        9.20229374       0.30218475      15.86405860
O        1.48933405      10.82961554      15.61305210
O        2.27307039       0.46894710      17.47867598
O        1.22931046       5.56223227      17.16014772
O        3.84856387       5.13842252      15.87618009
O        7.88880873       8.26946670      16.10080448
O        4.15843306       2.82702872      17.19259519
O       12.61977506       2.43109818      16.28808981
O       10.58122807       5.36164177      16.00378575
O       13.45991501       7.96883029      16.76812709
O        5.92489968       0.74103994      16.02958252
O        7.85047632      11.01006981      16.04771716
