115
Lattice="13.75323 0.0 0.0 0.0 13.75323 0.0 0.0 0.0 23.89" Properties=species:S:1:pos:R:3 entry_id=10 rank=19 energy=-572.814453125 parent_id=8 pbc="T T F"
Pd       0.00000000       0.00000000      10.00000000
Pd       2.75064538       0.00000000      10.00000000
Pd       5.50129076       0.00000000      10.00000000
Pd       8.25193614       0.00000000      10.00000000
Pd      11.00258152       0.00000000      10.00000000
Pd       0.00000000       2.75064538      10.00000000
Pd       2.75064538       2.75064538      10.00000000
Pd       5.50129076       2.75064538      10.00000000
Pd       8.25193614       2.75064538      10.00000000
Pd      11.00258152       2.75064538      10.00000000
Pd       0.00000000       5.50129076      10.00000000
Pd       2.75064538       5.50129076      10.00000000
Pd       5.50129076       5.50129076      10.00000000
Pd       8.25193614       5.50129076      10.00000000
Pd      11.00258152       5.50129076      10.00000000
Pd       0.00000000       8.25193614      10.00000000
Pd       2.75064538       8.25193614      10.00000000
Pd       5.50129076       8.25193614      10.00000000
Pd       8.25193614       8.25193614      10.00000000
Pd      11.00258152       8.25193614      10.00000000
Pd       0.00000000      11.00258152      10.00000000
Pd       2.75064538      11.00258152      10.00000000
Pd       5.50129076      11.00258152      10.00000000
Pd       8.25193614      11.00258152      10.00000000
Pd      11.00258152      11.00258152      10.00000000
Pd       1.33707661       1.40842278      11.96936700
Pd       4.11202690       1.48672135      12.08073285
Pd       6.87549838       1.38205852      11.96958103
Pd       9.57512057       1.39592898      11.89594876
Pd      12.38684272       1.37174114      11.92044161
Pd       1.36835251       4.14912130      11.94692142
Pd       4.11013364       4.13932782      11.98079787
Pd       6.83936762       4.09077533      11.94786868
Pd       9.56728621       4.13975942      11.94281254
Pd      12.36578195       4.13265160      11.93417299
Pd       1.37110082       6.89256210      11.94010419
Pd       4.13935064       6.87026939      11.96482277
Pd       6.87097415       6.85831372      11.95140951
Pd       9.64205429       6.82915781      11.94515418
Pd      12.39111484       6.85622887      11.94896407
Pd       1.37501731       9.66289979      11.96898340
Pd       4.11777592       9.66324146      11.95099537
Pd       6.89476706       9.64088005      11.95142944
Pd       9.64982872       9.59779534      11.89439304
Pd      12.42487279       9.60955999      11.94161946
Pd       1.37147472      12.43031618      11.99602488
Pd       4.12138332      12.44467973      11.98948457
Pd       6.86816975      12.39901143      11.97280504
Pd       9.63028672      12.36702810      11.91406436
Pd      12.40566693      12.34625680      12.00225879
Pd       0.04598901       0.15303565      14.00588644
Pd       2.81398683       0.02545998      14.15663470
Pd       5.55951700       0.08199268      13.96832723
Pd       8.38155183       0.18254004      14.04062244
Pd      11.05938571       0.07720541      13.85480232
Pd      10.86595930       1.19436637      16.24950856
Pd      12.51286519       2.71774330      14.27559770
Pd       1.50785555       2.93265742      14.35112802
Pd       6.94586783       2.78704901      14.31140784
Pd       9.69812616       2.76058514      14.26234948
Pd      13.75128062       5.36692882      14.01990878
Pd       2.74586603       5.47715829      13.98751680
Pd       5.56412581       5.44984957      13.92486185
Pd       8.23777283       5.36607082      13.95534815
Pd      11.01639522       5.24069214      13.98354356
Pd      13.73333709       8.21123582      13.91669642
Pd       2.78662744       8.28386327      13.90448613
Pd       5.50899732       8.26603969      13.98233387
Pd       8.26338764       8.26377564      13.89896139
Pd      11.01212636       8.16884664      13.92847285
Pd      13.68379591      10.95274899      14.05997808
Pd       2.75536416      11.08404862      13.94757485
Pd       5.48704096      10.99857231      13.89450845
Pd       8.19317639      11.07287538      13.99604774
Pd      10.90661844      10.95978446      13.89674470
Pd      12.23745670       6.55738141      16.20225782
Pd       9.18379158       9.55077350      16.33407267
Pd       1.83361900      12.49591369      16.50068301
Pd       1.43912071       7.13292442      15.87605182
Pd      12.20554293       9.37158029      16.13368295
Pd       8.11176486       1.83281166      16.65437602
Pd       4.05957330       0.85148446      16.67099151
Pd       6.04570882       9.85649230      16.40724095
Pd       4.35877273      12.00259542      16.06830736
Pd      12.11768504      12.28908808      16.01767495
Pd      13.58238216       4.21638624      16.60007371
Pd       2.62720191       4.04180061      16.92123593
Pd       8.86443101       4.45410826      16.48639279
Pd       2.90806411       9.66789994      16.29868559
Pd       6.92286575       6.81479932      15.88950121
Pd       6.84235887      12.86644108      16.12283676
Pd       9.59723313       7.01052702      15.91667875
Pd       5.67691099       4.20946606      16.36546977
Pd       0.57840825       1.41885443      16.87828019
Pd       4.20538772       7.04900778      16.24581868
O        7.29295305       3.53282970      17.23879817
O       10.78730803      10.78151540      15.98082170
O       13.72169443      13.43544415      16.04626664
O        9.17933325       1.67646028      18.48161606
O       10.43677962       1.39234887      18.29169881
O        4.48917599       8.80595064      17.04907187
O        3.21525291       1.98493304      13.92420538
O        1.13440976       3.05909793      17.80390172
O        9.09617058       0.22107735      16.01382684
O        1.38577065      10.77932243      15.63386123
O        2.26862207       0.44006409      17.42124278
O        1.25359025       5.51723414      17.07616272
O        3.92852699       5.12546867      15.78140633
O        7.58738609       8.46976126      16.90452264
O        4.19700270       2.84147918      17.08149332
O       12.57321461       2.35785181      16.33177157
O       10.68047424       5.24367474      16.05106486
O       13.49055676       7.98605259      16.68849897
O        5.89452819       0.87083511      15.92440095
O        7.63581419      11.05447476      16.05943595
