115
Lattice="13.75323 0.0 0.0 0.0 13.75323 0.0 0.0 0.0 23.89" Properties=species:S:1:pos:R:3 entry_id=33 rank=21 energy=-572.7994995117188 parent_id=28 pbc="T T F"
Pd       0.00000000       0.00000000      10.00000000
Pd       2.75064538       0.00000000      10.00000000
Pd       5.50129076       0.00000000      10.00000000
Pd       8.25193614       0.00000000      10.00000000
Pd      11.00258152       0.00000000      10.00000000
Pd       0.00000000       2.75064538      10.00000000
Pd       2.75064538       2.75064538      10.00000000
Pd       5.50129076       2.75064538      10.00000000
Pd       8.25193614       2.75064538      10.00000000
Pd      11.00258152       2.75064538      10.00000000
Pd       0.00000000       5.50129076      10.00000000
Pd       2.75064538       5.50129076      10.00000000
Pd       5.50129076       5.50129076      10.00000000
Pd       8.25193614       5.50129076      10.00000000
Pd      11.00258152       5.50129076      10.00000000
Pd       0.00000000       8.25193614      10.00000000
Pd       2.75064538       8.25193614      10.00000000
Pd       5.50129076       8.25193614      10.00000000
Pd       8.25193614       8.25193614      10.00000000
Pd      11.00258152       8.25193614      10.00000000
Pd       0.00000000      11.00258152      10.00000000
Pd       2.75064538      11.00258152      10.00000000
Pd       5.50129076      11.00258152      10.00000000
Pd       8.25193614      11.00258152      10.00000000
Pd      11.00258152      11.00258152      10.00000000
Pd       1.37487154       1.45798508      11.99273017
Pd       4.14228050       1.38074623      11.91934281
Pd       6.88940262       1.38737836      12.07023415
Pd       9.57512057       1.39592898      11.89594876
Pd      12.38684272       1.37174114      11.92044161
Pd       1.36177538       4.15416274      11.98583095
Pd       4.08056249       4.12119749      11.97838286
Pd       6.84387261       4.05446238      12.04771264
Pd       9.56728621       4.13975942      11.94281254
Pd      12.36578195       4.13265160      11.93417299
Pd       1.37110082       6.89256210      11.94010419
Pd       4.13935064       6.87026939      11.96482277
Pd       6.87097415       6.85831372      11.95140951
Pd       9.64205429       6.82915781      11.94515418
Pd      12.39111484       6.85622887      11.94896407
Pd       1.37573013       9.66797585      11.96537964
Pd       4.11777592       9.66324146      11.95099537
Pd       6.89476706       9.64088005      11.95142944
Pd       9.64982872       9.59779534      11.89439304
Pd      12.42487279       9.60955999      11.94161946
Pd       1.36782944      12.45455209      11.98991787
Pd       4.12306884      12.40371914      11.96341828
Pd       6.86816975      12.39901143      11.97280504
Pd       9.63028672      12.36702810      11.91406436
Pd      12.40476430      12.36228366      11.99546406
Pd       0.04120796       0.22387857      13.97571551
Pd       2.83240472       0.11772450      13.96481994
Pd       5.59268030      13.71700000      14.03735664
Pd       8.33309252       0.12526256      14.06621161
Pd      11.02755790       0.11233242      13.84939767
Pd      10.82609414       1.28991633      16.22681709
Pd      12.44847645       2.74015307      14.28912123
Pd       1.49863269       2.96309601      14.45376026
Pd       5.26679559       2.71411944      13.99782680
Pd       9.37541414       2.76032853      14.24281961
Pd      13.73014175       5.37215573      14.03770734
Pd       2.73890125       5.49620870      14.01823720
Pd       5.53830765       5.52605547      13.91781327
Pd       8.23205519       5.42947154      13.97807840
Pd      10.98271562       5.21159055      13.97664475
Pd      13.71171773       8.22735021      13.90675461
Pd       2.76509972       8.30770295      13.92167699
Pd       5.48503483       8.28961241      13.97369246
Pd       8.26048870       8.25883460      13.90634463
Pd      10.97073295       8.12825970      13.99999120
Pd      13.70468470      10.98844451      14.04536593
Pd       2.76729162      11.11632444      13.92117604
Pd       5.49982945      10.98056786      13.88890059
Pd       8.21160103      11.05741342      13.95577622
Pd      10.94125177      10.96003412      13.87175886
Pd      12.21546173       6.64008928      16.16887775
Pd       9.36581498       9.65269395      16.26925090
Pd       1.92609544      12.67403222      16.37152040
Pd       1.40064858       7.17223653      15.88456953
Pd      12.24050518       9.49422694      16.10152370
Pd       7.99434973       1.78316842      16.52609892
Pd       4.43661924       1.22424729      16.24222554
Pd       6.02326196       9.87234207      16.37192552
Pd       4.40345334      12.13345066      15.99746724
Pd      12.19184608      12.43213139      15.97100004
Pd      13.54612800       4.28930476      16.65962295
Pd       2.61670469       4.17998542      17.03000138
Pd       8.89862324       4.38605967      16.43308365
Pd       2.89563901       9.79659045      16.29806671
Pd       6.83456729       6.90958864      15.88597418
Pd       6.90246352      12.76712349      16.43685895
Pd       9.50206867       6.97885597      16.24226800
Pd       5.64910066       4.33429905      16.33581690
Pd       0.63198250       1.54224647      16.85663824
Pd       4.15364562       7.18496668      16.30806969
O        7.27042767       3.52928546      17.06568212
O       10.85916843      10.96536601      15.94947385
O        0.04058411      13.56494378      16.01149289
O        9.07820675       1.62887578      18.45967752
O       10.34185507       1.43407176      18.26983756
O        4.45055214       8.94062454      17.09453415
O        3.31216807       1.98287695      14.70295783
O        1.12937147       3.15243047      17.86372561
O        9.11821291       0.21402444      15.98440907
O        1.40030252      10.91775076      15.61482276
O        2.41274236       0.62677336      17.17367985
O        1.20200478       5.60341374      17.14637484
O        3.87920264       5.26900382      15.86371661
O        8.10886878       8.24016522      16.89177403
O        4.26692134       3.05412465      17.19476331
O       12.55280584       2.43637774      16.35447019
O       10.66158280       5.32817230      16.01192983
O       13.46632893       8.06453056      16.67342621
O        6.17468001       0.69914156      17.09888928
O        7.66122582      10.97336916      15.98103306
