115
Lattice="13.75323 0.0 0.0 0.0 13.75323 0.0 0.0 0.0 23.89" Properties=species:S:1:pos:R:3 entry_id=15 rank=24 energy=-572.7085571289062 parent_id=14 pbc="T T F"
Pd       0.00000000       0.00000000      10.00000000
Pd       2.75064538       0.00000000      10.00000000
Pd       5.50129076       0.00000000      10.00000000
Pd       8.25193614       0.00000000      10.00000000
Pd      11.00258152       0.00000000      10.00000000
Pd       0.00000000       2.75064538      10.00000000
Pd       2.75064538       2.75064538      10.00000000
Pd       5.50129076       2.75064538      10.00000000
Pd       8.25193614       2.75064538      10.00000000
Pd      11.00258152       2.75064538      10.00000000
Pd       0.00000000       5.50129076      10.00000000
Pd       2.75064538       5.50129076      10.00000000
Pd       5.50129076       5.50129076      10.00000000
Pd       8.25193614       5.50129076      10.00000000
Pd      11.00258152       5.50129076      10.00000000
Pd       0.00000000       8.25193614      10.00000000
Pd       2.75064538       8.25193614      10.00000000
Pd       5.50129076       8.25193614      10.00000000
Pd       8.25193614       8.25193614      10.00000000
Pd      11.00258152       8.25193614      10.00000000
Pd       0.00000000      11.00258152      10.00000000
Pd       2.75064538      11.00258152      10.00000000
Pd       5.50129076      11.00258152      10.00000000
Pd       8.25193614      11.00258152      10.00000000
Pd      11.00258152      11.00258152      10.00000000
Pd       1.37373916       1.44237927      11.98380711
Pd       4.11760989       1.37258508      11.92988747
Pd       6.86412788       1.36724655      12.00363820
Pd       9.57512057       1.39592898      11.89594876
Pd      12.38684272       1.37174114      11.92044161
Pd       1.35799937       4.15084527      11.95875153
Pd       4.07581235       4.11004026      11.96262831
Pd       6.82700463       4.08260911      11.96955411
Pd       9.56728621       4.13975942      11.94281254
Pd      12.36578195       4.13265160      11.93417299
Pd       1.37110082       6.89256210      11.94010419
Pd       4.13935064       6.87026939      11.96482277
Pd       6.87097415       6.85831372      11.95140951
Pd       9.64205429       6.82915781      11.94515418
Pd      12.39111484       6.85622887      11.94896407
Pd       1.36957053       9.66315019      11.97994494
Pd       4.11777592       9.66324146      11.95099537
Pd       6.89476706       9.64088005      11.95142944
Pd       9.64982872       9.59779534      11.89439304
Pd      12.42487279       9.60955999      11.94161946
Pd       1.37869535      12.44401497      11.99042204
Pd       4.12901202      12.40997182      11.99513356
Pd       6.86816975      12.39901143      11.97280504
Pd       9.63028672      12.36702810      11.91406436
Pd      12.40953183      12.35230883      11.98306813
Pd       0.04786723       0.18973433      13.94869138
Pd       2.82461478       0.12843681      14.06465813
Pd       5.54605730      13.75043505      14.01709906
Pd       8.36458861       0.05855880      14.00942042
Pd      11.05668306       0.05787802      13.84795821
Pd      10.80659933       1.30644548      16.15882541
Pd      12.53421471       2.72833198      14.23750409
Pd       1.55404138       2.96684564      14.39842713
Pd       5.29472409       2.71856594      14.00450418
Pd       8.13780548       2.79095663      14.01393593
Pd       0.00027872       5.35146485      14.01841592
Pd       2.76614685       5.45841971      13.99952167
Pd       5.52287241       5.46210092      13.90031857
Pd       8.23551681       5.48670609      13.91724806
Pd      10.98414151       5.19681471      13.96088918
Pd      13.73226190       8.22241142      13.94583647
Pd       2.78926238       8.29428979      13.90737590
Pd       5.48161155       8.23263797      14.02405724
Pd       8.20749323       8.28658481      13.91425965
Pd      10.96942111       8.20769840      13.98086619
Pd      13.67650211      10.99409410      14.05726155
Pd       2.76146047      11.12087602      13.94081083
Pd       5.50378352      10.96381029      13.90923383
Pd       8.23014739      11.05279066      13.98540091
Pd      10.96294843      10.97856869      13.90847731
Pd      12.15316947       6.59414169      16.02519051
Pd       9.49042422       9.81968557      16.19924661
Pd       1.83308662      12.58822571      16.47038584
Pd       1.54386687       7.10117745      15.89702175
Pd      12.19575055       9.61494723      16.20062123
Pd       7.99084457       1.78514237      16.59054623
Pd       4.04767548       0.86035942      16.77158706
Pd       6.00995764       9.82004351      16.39231371
Pd       4.34135849      12.02008501      16.08110363
Pd      12.10353193      12.42792620      16.07945459
Pd      13.49135907       4.28157774      16.62813779
Pd       2.50911145       4.07425200      17.05459666
Pd       8.76106224       4.38672411      16.40632998
Pd       2.89240572       9.70535533      16.29694478
Pd       6.79099910       6.59062644      15.96709845
Pd       6.85245397      12.76635890      16.16417607
Pd       9.49500300       6.94072455      16.04655557
Pd       5.53235237       4.19008247      16.38914481
Pd       0.52327390       1.49268829      16.88350613
Pd       4.16748087       7.04782053      16.33037862
O        7.18210704       3.48360316      17.15172272
O       10.92208994      11.03364878      16.74816335
O       13.73384238      13.53894252      15.96176179
O        9.09717357       1.69917110      18.40414178
O       10.37211021       1.53785326      18.18640591
O        4.45236194       8.82794012      17.07488127
O        3.34795923       2.06508152      14.47522017
O        0.99030480       3.10687142      17.89383513
O        9.08917461       0.26603804      15.93750826
O        1.41169917      10.85797346      15.60166711
O        2.21301328       0.51191993      17.44381797
O        1.14454678       5.57723863      17.15434459
O        3.80283798       5.13471244      15.89824779
O        8.11156343       8.35566157      16.06407333
O        4.10163706       2.86403030      17.22933973
O       12.52136072       2.42749820      16.28455525
O       10.59376613       5.25114244      16.01729125
O       13.45733565       8.08174730      16.07847635
O        5.91521599       0.78128411      16.05822335
O        7.64162765      10.96077576      16.06836450
