115
Lattice="13.75323 0.0 0.0 0.0 13.75323 0.0 0.0 0.0 23.89" Properties=species:S:1:pos:R:3 entry_id=14 rank=27 energy=-572.6681518554688 parent_id=9 pbc="T T F"
Pd       0.00000000       0.00000000      10.00000000
Pd       2.75064538       0.00000000      10.00000000
Pd       5.50129076       0.00000000      10.00000000
Pd       8.25193614       0.00000000      10.00000000
Pd      11.00258152       0.00000000      10.00000000
Pd       0.00000000       2.75064538      10.00000000
Pd       2.75064538       2.75064538      10.00000000
Pd       5.50129076       2.75064538      10.00000000
Pd       8.25193614       2.75064538      10.00000000
Pd      11.00258152       2.75064538      10.00000000
Pd       0.00000000       5.50129076      10.00000000
Pd       2.75064538       5.50129076      10.00000000
Pd       5.50129076       5.50129076      10.00000000
Pd       8.25193614       5.50129076      10.00000000
Pd      11.00258152       5.50129076      10.00000000
Pd       0.00000000       8.25193614      10.00000000
Pd       2.75064538       8.25193614      10.00000000
Pd       5.50129076       8.25193614      10.00000000
Pd       8.25193614       8.25193614      10.00000000
Pd      11.00258152       8.25193614      10.00000000
Pd       0.00000000      11.00258152      10.00000000
Pd       2.75064538      11.00258152      10.00000000
Pd       5.50129076      11.00258152      10.00000000
Pd       8.25193614      11.00258152      10.00000000
Pd      11.00258152      11.00258152      10.00000000
Pd       1.37101877       1.45293630      11.98521104
Pd       4.11605081       1.37338216      11.92651341
Pd       6.86753579       1.36892100      11.99719493
Pd       9.57512057       1.39592898      11.89594876
Pd      12.38684272       1.37174114      11.92044161
Pd       1.35065959       4.16052618      11.96498839
Pd       4.06306597       4.11092208      11.96868240
Pd       6.82124403       4.08368880      11.96855543
Pd       9.56728621       4.13975942      11.94281254
Pd      12.36578195       4.13265160      11.93417299
Pd       1.37110082       6.89256210      11.94010419
Pd       4.13935064       6.87026939      11.96482277
Pd       6.87097415       6.85831372      11.95140951
Pd       9.64205429       6.82915781      11.94515418
Pd      12.39111484       6.85622887      11.94896407
Pd       1.37336634       9.67166074      11.97371869
Pd       4.11777592       9.66324146      11.95099537
Pd       6.89476706       9.64088005      11.95142944
Pd       9.64982872       9.59779534      11.89439304
Pd      12.42487279       9.60955999      11.94161946
Pd       1.37918931      12.45163686      11.99081326
Pd       4.12801205      12.40737968      11.98788207
Pd       6.86816975      12.39901143      11.97280504
Pd       9.63028672      12.36702810      11.91406436
Pd      12.41231570      12.35025048      11.98294020
Pd       0.05034690       0.20344604      13.95031880
Pd       2.81979501       0.14454048      14.06556607
Pd       5.53558875      13.74467444      13.99652411
Pd       8.36107691       0.06677118      14.00629883
Pd      11.05676597       0.05620703      13.83649883
Pd      10.82608787       1.31374970      16.14244054
Pd      12.52872340       2.74058223      14.23902809
Pd       1.54412976       2.99700658      14.41022300
Pd       5.30341718       2.71698982      13.99782891
Pd       8.14845389       2.79809376      14.00554141
Pd      13.73182451       5.37877646      14.02832368
Pd       2.74463582       5.49463923      14.00772925
Pd       5.51029312       5.46146753      13.89152424
Pd       8.22954635       5.49356220      13.91545512
Pd      10.98573868       5.21665744      13.96325941
Pd      13.71283760       8.23455196      13.92747548
Pd       2.76622478       8.30988703      13.90934556
Pd       5.47027312       8.23590805      14.01966018
Pd       8.20349964       8.29167202      13.92263158
Pd      10.97417353       8.17394906      13.99590386
Pd      13.68935926      10.99059491      14.05248096
Pd       2.76292641      11.13888964      13.94121525
Pd       5.50188897      10.96154765      13.91248978
Pd       8.22316304      11.06490683      13.98808652
Pd      10.96480078      10.95910692      13.90093875
Pd      12.14847230       6.58343363      16.12403805
Pd       9.49172211       9.76868160      16.13042794
Pd       1.84080337      12.59602562      16.47522282
Pd       1.44246760       7.12789573      15.87009924
Pd      12.25958124       9.52000177      16.17400290
Pd       7.99726418       1.77219569      16.58156028
Pd       4.04639988       0.87062776      16.75198957
Pd       6.02377042       9.84855961      16.40053381
Pd       4.34657647      12.02775362      16.08236821
Pd      12.15093186      12.41549111      16.01694497
Pd      13.50930893       4.28762536      16.63210715
Pd       2.53099456       4.08750882      17.04520281
Pd       8.74708153       4.38002083      16.39889673
Pd       2.89385354       9.71859985      16.29259403
Pd       6.76545419       6.60035841      15.95056490
Pd       6.85103069      12.79373752      16.15266518
Pd       9.47060799       6.93979614      16.06427007
Pd       5.53647281       4.19677978      16.37439272
Pd       0.53370863       1.50711483      16.88710900
Pd       4.13882510       7.08173436      16.31052818
O        7.17310382       3.46616818      17.14330260
O       10.95900157      10.98653209      16.55611782
O        0.00345602      13.55431767      15.96552012
O        9.12265360       1.72256695      18.38364468
O       10.39494192       1.53925837      18.16538376
O        4.45911503       8.85100963      17.06730881
O        3.33694511       2.08896216      14.43945444
O        1.01513581       3.11870631      17.89427407
O        9.11422705       0.26812355      15.92424704
O        1.40797501      10.86590066      15.60879893
O        2.22139199       0.52249702      17.44270947
O        1.17161422       5.57635749      17.14380909
O        3.80840321       5.15997053      15.88300020
O        8.06459303       8.34528959      16.10484297
O        4.11727810       2.87278227      17.21531447
O       12.52978934       2.44371974      16.28785453
O       10.57246202       5.25638134      16.00131310
O       13.45149071       7.98930237      16.53381187
O        5.89931338       0.80499087      16.01104565
O        7.65269890      10.98943084      16.08014195
