13
algorithm=bh size=13 seed=0 index=0 energy=-38.35187975404729 step=1
Ar 0.7071934518903594 -0.3639700419845446 -0.6181732677290761
Ar -0.4438542203670312 0.4525031960897358 1.096124886546838
Ar 0.07875090013262905 1.034571474670965 -0.2689490827107821
Ar 0.657375359468804 0.6300941487902789 -1.123876687746318
Ar 1.123669437366627 -0.4310212786369508 0.4125904026891349
Ar -0.4922389556513838 1.444384054807176 0.5908920261082004
Ar 0.29967873002688 -0.2863097551120376 -1.654455346369312
Ar -0.8578262329494826 0.5304956907879425 0.06588860862932171
Ar 0.5488018186810517 -0.02522401364861088 1.267856857983312
Ar 0.1280377775355659 0.04379687185335743 0.2354184148585368
Ar -0.2816195035214351 0.1215547176433319 -0.7934003661935094
Ar 1.066749670770685 0.5529847021414298 -0.09381373214372946
Ar 0.4949457867901368 0.9586785379115176 0.7605441561221513
13
algorithm=bh size=13 seed=0 index=1 energy=-37.46182528042396 step=2
Ar 0.9838351018141722 -0.5432558578545639 -0.665454885851993
Ar -0.5787535447677026 -0.1786078735681594 0.7784209169917792
Ar 0.3048545650728499 1.21770109634996 -0.2303510002258014
Ar 0.2092207983578654 0.2717174837109748 -0.9023556387153987
Ar 0.01624967802247115 -0.475830202754266 -0.1135621073188216
Ar -0.9556358585145629 0.8741107297185231 0.8561996447724097
Ar 0.05061156507253026 -0.8133025526158764 -1.184806565019105
Ar -0.5038091073682736 0.5018636873664799 -0.08595414657477631
Ar 0.5165552461204149 -0.3640345772457337 0.8719337716875254
Ar -0.1807557027677359 -1.219975717977922 0.6781635234387466
Ar -0.8179962101432161 -0.2440252817656722 -0.8177273974993055
Ar 0.8156182734886122 0.284169479287439 0.02897363108026055
Ar 0.1400051956125819 0.6894695873488235 0.7865202532344765
13
algorithm=bh size=13 seed=0 index=2 energy=-39.11774968692247 step=3
Ar -0.4800807904234308 -0.7120545027095259 0.4611559485452359
Ar -0.6950838719352154 0.06968589429183597 1.238073343559557
Ar -0.1081840722378749 0.8972751824162475 -0.2975452784773394
Ar 0.3404323473872735 0.4255818928788994 -1.224771263693834
Ar 0.6176500664901482 -0.6957034808675817 0.1996213029673189
Ar -0.5093515615375858 1.095469076138818 0.7558746934858391
Ar -0.1572617022268857 -0.5394049721593825 -1.498788788396505
Ar -0.9250613239448883 0.2645399293785581 0.1563665944833975
Ar 0.2529346865771445 -0.5775338436944135 1.278013436587764
Ar 0.7962094989245514 -0.5747451254829095 -0.9125797458472233
Ar -0.1323328375368634 -0.1995615823633697 -0.4462219916309533
Ar 0.8642737996388035 0.3137922875507564 -0.2563362142559482
Ar 0.1358557608248247 0.2326592446220633 0.5471379626726938
13
algorithm=bh size=13 seed=0 index=3 energy=-39.20814028880613 step=4
Ar -0.141909193439603 -0.6129469791810095 0.5688747116280786
Ar -0.9581743932020972 -0.01360461921107621 1.046795253957219
Ar 0.02250880444775936 1.103579966574985 -0.007981639266489229
Ar -0.05724244864540469 0.424125801071741 -0.9198090548922141
Ar 0.7432828288945321 -0.9635925648407393 -0.02868993892883471
Ar -0.8543652743939703 1.054073404517918 0.6953005001508682
Ar -0.1285305368427232 -0.432972582480009 -1.630122110093394
Ar -0.6278166696368875 0.2116811487220122 0.01188534155143658
Ar 0.8739723323495437 -0.3327959428322559 0.9078359899087067
Ar 0.7822979906958509 -0.347903447797511 -0.9859595915227447
Ar -0.1929077053987088 -0.634230474132245 -0.5386528376406062
Ar 0.4919143164923859 0.1054529030042788 -0.02884308493106422
Ar 0.04696994867932616 0.4391333865839115 0.9093664600790397
13
algorithm=bh size=13 seed=0 index=4 energy=-38.27007542587045 step=5
Ar -0.03405048108401878 -0.5409397411644142 0.6016752291296276
Ar -0.8975081564737944 0.09529357491345046 0.8949728155813004
Ar -0.1521373079906032 0.714137043551868 -0.7185168009153671
Ar -0.2778516290871634 -0.2960002058484043 -1.183826684908237
Ar -0.1608562195986068 -1.065322984669347 -0.3790703050416539
Ar -0.5405366327294232 1.103448351615191 1.219301770769872
Ar 0.6832481355130894 0.2500487710429061 -1.317079572180133
Ar -0.0297923553372338 0.5832890312937005 0.3831098709835551
Ar 0.9058719006416684 0.05710672959655338 0.6733261854743597
Ar 0.677325886866803 -0.8625897500016041 -1.106058715673667
Ar -0.6930041245217033 -0.1026533897651855 -0.1797416703315334
Ar 0.4325795227622442 -0.1343603692411421 -0.3127195372222907
Ar 0.08671146103875785 0.198542938676418 1.424627414334096
13
algorithm=bh size=13 seed=0 index=5 energy=-41.04458338063521 step=6
Ar -0.4527342578791433 -0.9876944157863154 0.2828161266553206
Ar -0.7976435730555275 -0.03889870607010368 0.8571129515019076
Ar 0.5791964205539364 0.9139659305893187 0.08155410221707331
Ar -0.05829519372422681 0.4796764157985297 -0.7331356507725015
Ar 0.7003200395388295 -0.925774095275572 0.1577499047293904
Ar -0.5453184523931255 0.8531082546118715 0.2067720657417498
Ar -0.72557295306138 -0.1506598569138572 -1.363043033344915
Ar -0.9006513264718429 -0.1091939217178076 -0.264349894250998
Ar 1.06357484563447 0.0613618229277046 0.6437007573661891
Ar 0.9171419198901453 -0.01275778233163602 -0.4760279415454234
Ar 0.00795739039105633 -0.6471454756495789 -0.6885615367081889
Ar 0.07507714023103622 -0.04595380038341626 0.2190840964938251
Ar 0.1369480003457657 0.609965630200857 1.076328051916569
13
algorithm=bh size=13 seed=0 index=6 energy=-40.2464012900403 step=7
Ar -0.6251639040102145 -1.254473326637688 0.2835714281145991
Ar -0.7688333911985921 -0.1867450812536689 0.02728322680454768
Ar 0.4748349507156681 1.095380811766798 -0.355715607042941
Ar 0.06353479886271327 0.1137241317057751 -0.6971899545129635
Ar 0.8295489562363279 -0.1797127261863648 0.9118269988696461
Ar 0.0623000094164416 0.4066099636386439 0.391595098856884
Ar -0.9921246908865141 0.0647146119476891 -1.027839211926731
Ar -0.6416566731424864 0.8752799721285555 -0.3234015721451377
Ar -0.2712198232593381 -0.4563129696795515 1.000315120719915
Ar 1.022773570500757 0.1380466317613154 -0.1473360032341768
Ar -0.4342458189130236 -0.8820988334863977 -0.7658217885196746
Ar 0.2760793070201315 -0.6503329311339925 0.06234415632332586
Ar 1.004172708658123 0.9159197454288882 0.6403681076927026
13
algorithm=bh size=13 seed=0 index=7 energy=-40.17718772014746 step=8
Ar -0.7565639382040011 -1.253003213986821 -0.1133207822048661
Ar -0.7541180793935102 -0.3473311943971568 0.5610946841948239
Ar 0.02274773708731918 1.301755653457637 0.2667089820408952
Ar 0.03332438169170766 0.7171130084680138 -0.6894232698990364
Ar 0.2184138573065788 -0.8543700017198969 0.2333129620078422
Ar 0.1428468673988056 0.2217413508328118 0.3070758892182577
Ar -0.4421295867176451 -0.2681880239810107 -0.5034295692550342
Ar -0.8466829030966219 0.631760458342575 -0.006917441470117701
Ar 1.142158931015328 -0.2233803647176122 0.4126857517686663
Ar 0.6588451617288299 -0.2033301337232624 -0.584274661400357
Ar 0.1230675505478411 -1.163031365082199 -0.8260373178641264
Ar 0.9835575195609646 0.7763257584802296 -0.1095982172106611
Ar -0.5254674989256108 0.6639380680267062 1.052122990073701
13
algorithm=bh size=13 seed=0 index=8 energy=-39.53798288626168 step=9
Ar -0.3268975185860141 -1.239065348085945 0.7033912467532623
Ar -0.7959867234868939 -0.2422949551199124 0.8925346310271286
Ar 0.8044706099919818 0.6361106551346174 0.2859166229076856
Ar -0.07418076189361737 0.3244039889589226 -0.3465301775182302
Ar 0.3194741535232267 -1.159658697607757 -0.2050517576912555
Ar 0.08551452496375914 1.386515507507897 -0.1305793857268262
Ar 0.02681148300663936 -0.5027624361411211 -1.056690284341171
Ar -1.092500180293085 0.4177665447168318 0.04467420998653544
Ar 0.7860318288361459 0.8104124021961433 -0.8198660385923218
Ar 0.8902835354818303 -0.2275177021725236 -0.4072633486895851
Ar -0.63686214025929 -0.5927713363030823 -0.1517945253725924
Ar 0.2414305132925178 -0.302959130373734 0.4985736963579722
Ar -0.227589324577211 0.691820507289661 0.6926851108993914
13
algorithm=bh size=13 seed=0 index=9 energy=-40.17718771626517 step=10
Ar -0.4421946059742372 -1.085180472177093 0.822793031350485
Ar -0.8470949323916386 -0.2281923914742193 0.2498804324149141
Ar 0.7600053432169125 0.675484380422852 0.2866487069874102
Ar -0.05646104672601447 0.2284860002701926 -0.3293437756305928
Ar -0.03842871446220373 -0.8788499778162017 -0.2072280007636459
Ar 0.07256315165579276 1.314664378729338 -0.3004298625582651
Ar 0.317666572290703 -0.371189040506755 -1.159048499810756
Ar -0.7835611035882621 -0.3943706886351194 -0.8690445286740864
Ar 0.8170540574770426 0.6242634233150783 -0.8419907031779661
Ar 0.9206606804234231 -0.3048710980488903 -0.2238332422632973
Ar -0.6237310345068954 -0.08355196052515193 1.326361813222823
Ar 0.233376811761428 -0.227341258872437 0.6439844908226193
Ar -0.3298551791760456 0.7306487053184206 0.6012501380803564
13
algorithm=bh size=13 seed=0 index=10 energy=-40.1880713283459 step=11
Ar -0.1714855831611182 -0.8054370801149094 1.167020666603978
Ar -0.6124938429971191 0.08007009917007012 0.6596588588942134
Ar 0.9763651711227384 0.6438044923164069 -0.05489935512977965
Ar -0.0619911777303163 0.284200566458795 -0.2515803930416782
Ar -0.1292080556816106 -0.7820430443097462 0.05752796401450933
Ar 0.2136853238311978 1.315980223625002 -0.4980407181584212
Ar -0.1069958306467683 -0.4803203521219164 -1.02526518718363
Ar -1.010594950336104 -0.2575069105211471 -0.3536936077156448
Ar 0.6035422984144632 0.4260559648424558 -1.102373571752177
Ar 0.8110477503637203 -0.404371858755956 -0.3826951913759488
Ar -1.112248708931096 -0.9084806957343554 0.5557682484003279
Ar 0.4971210771589906 -0.07814713812875156 0.6435602250499431
Ar 0.103256528593017 0.9661957332740696 0.5850120613943069
13
algorithm=bh size=13 seed=0 index=11 energy=-37.64954422131774 step=12
Ar -0.08376013022621834 -0.3293799613890533 0.3615665487243067
Ar -0.4509794616764305 0.7045187938900022 0.3760711210589689
Ar 0.6569229543706102 0.4769880256384802 0.3524946800213773
Ar -0.3579229931949766 0.1796055373039056 -0.5900786082350096
Ar 0.1334243413275573 -0.8200105584662064 -0.5990858170548032
Ar 0.2198782843621408 1.105530110735012 -0.4438885074724196
Ar -0.9519446782002399 -0.704895658628045 -0.8668738138309142
Ar -1.14134322193706 -0.1707558147740967 0.1071318050298391
Ar 0.7303262890928139 0.1240768260925699 -0.6878530487881332
Ar 0.9599247691063264 -0.5879364010505164 0.1328629565580526
Ar -0.6774883216231623 -1.205807106782923 0.08103829858127783
Ar 0.6646000108787312 -0.2699313724874244 1.173137089123034
Ar 0.2983621577199154 1.497997579918274 0.6034772962844458
13
algorithm=bh size=13 seed=0 index=12 energy=-38.31029712311792 step=13
Ar -0.03132145896959071 -0.4998110449657042 1.054337509114705
Ar -0.5548765045310604 0.2319822941553565 0.409543788010327
Ar 1.083332697858438 0.9700204853455417 0.7062753205047806
Ar -0.08059850967084138 0.2789424449556986 -0.5784417937231333
Ar -0.11193286160826 -0.7181787000928394 -0.03334680612385276
Ar 0.1120031151403571 1.084507506466351 0.1663648176300835
Ar -0.2372932893138045 -0.6740438744914984 -1.132770426562976
Ar -1.039635570566278 -0.2810974918906431 -0.4501041844516286
Ar 0.4217431295649733 0.1274062086560808 -1.555394734020341
Ar 0.5661667443946349 0.07512581071877948 0.3044702489088832
Ar -1.030405744908236 -0.7513444653249836 0.5813724654674634
Ar 0.7624933157624375 -0.4468736951088459 -0.6597606527114045
Ar 0.1403249368438609 0.6033645215755818 1.187454447958491
13
algorithm=bh size=13 seed=0 index=13 energy=-40.11389758574522 step=14
Ar 0.03938875120128494 -0.8402653404071632 1.163515045702453
Ar -1.288349815630068 0.1850513034939198 0.2522170712668215
Ar 1.364217346530102 0.3964306809511063 -0.2076413112612549
Ar 0.3820186905862813 -0.04485794487744358 -0.4138053067242285
Ar -0.2357054522065257 -0.001406945387556668 0.5134490771202802
Ar -0.4433119407526766 0.7201235974859995 -0.2831473807492869
Ar -0.2145815083675637 0.2901903123488753 -1.27571614635597
Ar -0.6615248939095126 -0.3707655443256548 -0.4692572932306591
Ar 0.5412601253826795 0.9779549026749942 -0.7664421849976177
Ar 0.1064769815315978 -0.9844451910865282 0.07034795850178853
Ar -0.912071618578939 -0.860709510762647 0.5139015765668639
Ar 0.8330741282169153 -0.2634214300642352 0.5673323417744965
Ar 0.4891092059964318 0.7961211099563309 0.3352465523863142
13
algorithm=bh size=13 seed=0 index=14 energy=-39.19767707515626 step=15
Ar -0.427912725318534 -0.7110153563095856 1.37100817019674
Ar -1.523458766453113 0.1081692188346859 -0.06821204041083533
Ar 1.100587807847551 0.3082282246326993 -0.6541482622715057
Ar 0.2334588859288007 -0.164974337107442 -0.1955698835889117
Ar 0.09353098559250356 0.1324619497678673 0.8686753590911815
Ar -0.5354082864581853 0.5937455988673686 0.08494650452875881
Ar 0.3267208320889371 -0.2513235567139915 -1.2842707317862
Ar -0.6864129637001822 -0.1105472515174726 -0.7765310200259952
Ar 0.06465270177780348 0.7302103498263344 -0.8394291220273415
Ar 0.3562881172336713 -0.9118533839218572 0.5964839316551267
Ar -0.6686569092052452 -0.498923322350299 0.305997892736832
Ar 1.116008265167695 -0.07409977366802022 0.4366256885214156
Ar 0.5506020554983221 0.8499216396597101 0.1544235133807254
13
algorithm=bh size=13 seed=0 index=15 energy=-38.80804790358661 step=16
Ar 0.02735602934786056 -0.6726033312198505 0.8009523902713315
Ar -0.7692755377024533 -0.03240735293851767 0.3034981798436251
Ar 1.299793816002801 0.5323707241731708 0.8188071705189731
Ar 0.06862537982242263 -0.009087947935449302 -0.3699467089210008
Ar 0.204784291444235 0.3874170512225938 0.7064174909445174
Ar -0.3177230420694672 0.9951677895777363 -0.01883916980299645
Ar -0.8985576406089351 0.4139969061562345 -0.7426810117318365
Ar -0.7650922651377294 -0.6735274000057597 -0.6533463345690628
Ar 0.09885211806293108 0.8625289596434291 -1.040684473515019
Ar 0.1694717899614423 -1.088974904293832 -0.2026826971172477
Ar -0.8353258455397941 -1.159716215513176 0.3283348774827327
Ar 0.9213479297775413 -0.3283578962836852 0.2207586827004706
Ar 0.7957429766391736 0.7731936174170646 -0.1505883961044523
13
algorithm=bh size=13 seed=0 index=16 energy=-38.33581727252808 step=17
Ar 0.1351072554460649 -1.145504401539272 0.668995387089659
Ar -1.599796901022407 0.1092370215179427 0.04083747133288224
Ar 1.100601725070366 0.4737641104378768 0.5935327649174281
Ar 0.5601838929603387 0.2903142021522681 -0.3637658382106934
Ar 0.1201692708543069 -0.03962770547117764 0.6316813985887264
Ar -0.5338532436083906 0.3317124108943871 -0.1677031303441654
Ar -0.1716076728307031 0.03219126109978751 -1.169925963001821
Ar -1.026712673625656 -0.5212467623014374 -0.6869837259402825
Ar 1.084748430927212 1.255297234973217 -0.2084719438566027
Ar 0.008203964016707678 -0.6568012289205197 -0.3159953205798087
Ar -0.8168222129749573 -0.5911839094822857 0.4164899437358883
Ar 0.9905065846472146 -0.572694558930645 0.2000426728943925
Ar 0.1492715801460061 1.034542325598879 0.3612662833663758
13
algorithm=bh size=13 seed=0 index=17 energy=-43.89940495399732 step=18
Ar 0.4823176177607132 0.3332913269410757 0.909207432015785
Ar -1.079546637873065 0.06506753544161804 -0.02685483089098061
Ar 1.079547058624535 -0.06506394320792248 0.02685190695541996
Ar 0.4461696776334456 -0.8485293197590282 -0.5013021001816337
Ar -0.5201749219787606 -0.203965631843473 0.9263855015090159
Ar -0.4461612361678284 0.8485327288773677 0.5013054843547624
Ar -0.4227708465537087 0.7686044498938666 -0.6331545766623353
Ar -0.4823125055627264 -0.3332975189964129 -0.9092068622753854
Ar 0.5201717472421866 0.2039685812547357 -0.9263867007526069
Ar 0.4227618937972084 -0.7686094080090862 0.6331556050258156
Ar -0.5425209302085392 -0.9343764615355761 0.05464386100731437
Ar 1.443899975916115e-06 -4.876069804306423e-07 -4.957349101704003e-07
Ar 0.5425176393865553 0.934378148549824 -0.054644224370244
13
algorithm=bh size=13 seed=0 index=18 energy=-43.89940495583463 step=19
Ar 0.3448829375165066 0.3142254704379702 0.9760583808435598
Ar -1.064285868192595 0.06755913235311518 -0.1819446908866322
Ar 1.064286599982204 -0.06755939708058754 0.1819382172114682
Ar 0.5151202032262865 -0.8391871608299498 -0.4480932579380547
Ar -0.6489024554416726 -0.2214441303847804 0.8368151185008489
Ar -0.3272235359164399 0.7818477801033038 -0.6723188081084003
Ar -0.5151268558397654 0.8391809602209235 0.4480989285796924
Ar -0.3448770636826585 -0.314221303903543 -0.9760627709511636
Ar 0.6489009260697408 0.221439036713163 -0.8368178464312476
Ar 0.3272247960511467 -0.7818404401694293 0.6723292227142258
Ar -0.5436846655092326 -0.9342903410975781 -0.04336216629187468
Ar -5.451552812958087e-09 2.658231830175598e-07 3.70284537807503e-07
Ar 0.5436849871880645 0.9342901278141955 0.04335930247304321
13
algorithm=bh size=13 seed=0 index=19 energy=-43.89940495349472 step=20
Ar -8.907825304609172e-07 -2.067873143610512e-06 -6.819649379342939e-10
Ar -0.7122027714351802 0.7250869574715237 -0.3706583845037375
Ar 1.033556205534832 0.3163855439396314 0.04507932138531475
Ar 0.7122091924854187 -0.725085703629809 0.3706523605966229
Ar -0.3414509303581562 -0.6518660746209257 0.7930021219229393
Ar 0.3414521284414956 0.6518656228745975 -0.7930023522602173
Ar -0.6712992997486921 0.4348584387795152 0.7284405594644306
Ar -0.4076477067868257 -0.1822714911871946 -0.9853775395313935
Ar 0.6712990402093572 -0.434854671423277 -0.7284467520798239
Ar 0.4076433044008149 0.182263705339494 0.98538604187044
Ar -1.033560490352899 -0.3163821004594156 -0.04507573036843093
Ar -0.178507041656594 -1.03327022967365 -0.2662001249322039
Ar 0.1785092600489712 1.033272070462658 0.2662004791180379
13
algorithm=bh size=13 seed=0 index=20 energy=-39.32478604038448 step=21
Ar -0.699323004527125 0.7280554126966937 0.2577177025912627
Ar -0.31717334058555 1.51285844580464 -0.436583846608166
Ar 1.077188334520389 0.3229763554250785 0.05944898411244071
Ar 0.9506541045714839 -0.6460625435615339 0.6633298626070792
Ar -0.1245050908260359 -0.9946274222752033 0.4898629280958604
Ar 0.1162293813250356 0.4937946127819768 -0.4940792570018676
Ar -0.8817511259528431 -0.2265755845117535 0.8629270605863373
Ar -0.1562549136213082 -0.3270390469467577 -1.210553060334545
Ar 0.4786191967481018 -0.5332278570433925 -0.3261638032851318
Ar 0.1289205348545396 0.07451131932856241 0.5523512710378091
Ar -0.6194666328304143 -0.2762275387285537 -0.2069777788506363
Ar -0.3072972481717425 -1.266142206549357 -0.5895782818736557
Ar 0.3541598044954603 1.13770605357961 0.3782982189232142
13
algorithm=bh size=13 seed=0 index=21 energy=-39.65956484322177 step=22
Ar -0.1835195418813765 0.1631125399001094 0.2348933711234009
Ar -0.9105280250920172 0.4809726794428031 -0.5540372735165716
Ar 0.899344345390071 0.391076882307272 0.1078838047313986
Ar 0.5343856981306383 -0.6585022359375068 0.03346812478668169
Ar -0.3070175114501271 -0.8082931914570751 0.7528141844727279
Ar 0.1789091313730647 0.7013634990625671 -0.6704051163660645
Ar -0.4173828580349957 1.241717578900674 0.09449423135518806
Ar -0.1917138716043028 -0.3457899730611691 -0.7509853563357964
Ar 0.8900300867309403 -0.1313740158044352 -0.8762045080729948
Ar 0.5484232933995622 -0.1473522469669026 1.022185282921608
Ar -1.033344106572189 -0.4954767292777266 -0.03188839596435265
Ar -0.3128957818368708 -1.321972451326637 -0.2373671730249281
Ar 0.3053091414476098 0.9305176642180291 0.8751488238897013
13
algorithm=bh size=13 seed=0 index=22 energy=-43.89940495983041 step=23
Ar 1.410126394042107e-06 -1.187136327114163e-06 7.170229694482875e-07
Ar -0.5928048331928045 0.8566696550982964 -0.2916716598990186
Ar 1.059068538351345 0.169890782957536 0.1410138027693564
Ar 0.5928070103392932 -0.856669827357022 0.2916692518419541
Ar -0.4697714099833167 -0.7080969852790466 0.6695418476928394
Ar 0.4697747967606946 0.7080979251107706 -0.6695400220791924
Ar -0.6602185393250339 0.4102923813349058 0.7524250137485267
Ar -0.3606950718205551 0.01416236257652431 -1.019840074832427
Ar 0.6602154772301343 -0.4102927988086673 -0.7524270343682503
Ar 0.36069318463482 -0.01415770436127694 1.019840928457158
Ar -1.0590692622216 -0.1698945845880041 -0.1410129380783579
Ar -0.2846587749717303 -0.9529199014617594 -0.425777681718045
Ar 0.2846574740723626 0.9529198819140633 0.4257778494424684
13
algorithm=bh size=13 seed=0 index=23 energy=-43.89940495101615 step=24
Ar -1.682065782855569e-06 -1.440446677398256e-06 -1.808069602024044e-06
Ar -0.7065519877139543 0.7498941460309404 -0.329876786162894
Ar 1.040012039050967 0.2961425773419559 0.03233625834381617
Ar 0.706544477068177 -0.7498932338569744 0.3298867175686203
Ar -0.3360292457420749 -0.6722753774412432 0.7781404832499464
Ar 0.3360365357736449 0.672279842031156 -0.7781337637270782
Ar -0.6469230747370488 0.421729196218643 0.7576328062008731
Ar -0.4325099318683867 -0.141296009643273 -0.9815012510888943
Ar 0.6469173738824383 -0.4217384726612616 -0.7576347265328123
Ar 0.4325131023448794 0.1413113953150834 0.981497353060056
Ar -1.040011797611279 -0.2961524999326354 -0.03234438142039013
Ar -0.203520125497879 -1.020253290506223 -0.2967035393564293
Ar 0.2035243171162966 1.020253167550514 0.2967026379347941
13
algorithm=bh size=13 seed=0 index=24 energy=-41.04458336974928 step=25
Ar -0.04527342215734977 -0.07474121894691239 -0.2193327986582363
Ar -0.6192515590784167 0.7032933311310732 -0.7030587996701301
Ar 1.041446379582496 0.004362321588469365 -0.3046829281732997
Ar 0.5583734430044327 -0.8088418805630747 0.319237502747505
Ar -0.3921362849795701 -0.3934498577375062 0.76445979722421
Ar 0.3882525268506944 0.9277965655306142 -0.2374260836262674
Ar -0.2145289745590143 0.4499267891775838 1.469205921786947
Ar 0.3549391017173545 0.2746030286377747 -1.160989610999142
Ar 0.4627455482950437 -0.8257358054053628 -0.8082788938025475
Ar 0.5219381330345029 0.2613817403035571 0.6559282725593323
Ar -1.113673407562947 -0.1285839781859373 -0.06078522032438714
Ar -0.4449975919467734 -1.075503053296124 -0.1328948992540939
Ar -0.4978338922004617 0.685492017765858 0.418617740190057
13
algorithm=bh size=13 seed=0 index=25 energy=-39.20947365739005 step=26
Ar -0.002170599442169334 -0.6779993954661427 -0.3180334561973581
Ar -0.1822049235915969 0.3899195999793235 -0.132231638251932
Ar 0.8124740876042067 0.8026978988581749 -0.3591012453396861
Ar 0.401092683576642 -0.1756886613664169 0.6075219000946683
Ar -0.565316388290755 -0.7126774345814514 0.6298040876173432
Ar 0.3275601865914207 0.08556597755383875 -1.070794849141718
Ar -0.5347554031867321 0.3578351107395495 0.920429929396169
Ar -0.7565454715493108 -0.1293057636439334 -0.9322632908770561
Ar 1.029378612006253 -0.2804070167170747 -0.2930376902677468
Ar 1.347990891924832 0.4010489283846889 0.5327672647346289
Ar -1.19432940662105 0.01449628004709165 0.08198675084387086
Ar -1.060950818187799 -1.015329665497397 -0.3244391426823846
Ar 0.3777765491660585 0.9398441417097488 0.6573913800711922
13
algorithm=bh size=13 seed=0 index=26 energy=-43.89940496157391 step=27
Ar -0.2037448374697023 -0.02563736812176502 -1.062170028696912
Ar -4.356179047632686e-07 6.838871509846062e-08 2.721382238266976e-07
Ar 0.9625988907947657 0.3931816868652445 0.2986376253352211
Ar 0.72082923191991 -0.715930864565491 0.3717826713941949
Ar -0.3911835718562696 -0.8198086103572433 0.5875917869808349
Ar 0.3911796895555221 0.8198062203651955 -0.5875965570497527
Ar -0.8366719880291913 0.2251075679275164 0.647829428414148
Ar -0.9626003539293218 -0.3931807472181552 -0.2986368306299224
Ar 0.8366740376252089 -0.2251038217963819 -0.647826516489046
Ar 0.2037425502130901 0.02563288461088919 1.062170746653618
Ar -0.7208297800399299 0.715931917099816 -0.3717813606808857
Ar -6.820009446490523e-06 -0.9747734788806772 -0.4692444360944956
Ar 1.338684326799003e-05 0.9747745456823121 0.4692431987247612
13
algorithm=bh size=13 seed=0 index=27 energy=-43.89940495399729 step=28
Ar -0.4405547991003572 -0.3652267031147096 -0.9180967853949906
Ar -1.396268005906512e-08 -1.2433704959737e-06 -2.894124406575858e-06
Ar 0.4405594300014398 0.365225604819727 0.9180910907148999
Ar 1.048571939798422 -0.2175176344595882 0.1534706713342553
Ar -0.6850023895774363 -0.8325192424803681 0.08978221168920499
Ar 0.6849963790374205 0.8325197789589408 -0.08978721733003868
Ar -0.6308465172558717 -0.01486465184485371 0.8787382291543862
Ar -1.048573373162091 0.2175194685072817 -0.1534599589449436
Ar 0.6308503497907599 0.01486982545230663 -0.8787347505733071
Ar 0.2353312178451603 -0.7412328141622705 0.7520415845059677
Ar -0.2353383125801879 0.7412307490791602 -0.7520447234341506
Ar 0.3529454687767205 -0.9577652632722143 -0.3584582458640583
Ar -0.3529393796112921 0.9577621258870856 0.3584607882671767
13
algorithm=bh size=13 seed=0 index=28 energy=-40.2427738647987 step=29
Ar -0.2548359197008235 -0.378206777663213 -1.349216217443122
Ar -0.9768108072479343 0.102042105679773 -0.6009592200335603
Ar -0.3561084672780958 0.6287917085159808 0.156127973947481
Ar 0.9347129441869251 -0.6611631441233424 0.096075783871392
Ar -0.04228063609841137 -1.149552829219621 0.4672902797065003
Ar 0.7250729254973869 0.4346642684532483 -0.03709153720012585
Ar -0.5862947553218316 0.4755379638564526 1.226807432386545
Ar -0.8382245431988352 -0.3232101119787291 0.46964613109388
Ar 0.8056950474228926 -0.2092185411989317 -0.9505718106336505
Ar 0.2257863086802712 -0.1260464011553229 0.7782988506204866
Ar 0.01346589536027279 0.5906430358343044 -0.8825731406400054
Ar -0.03989700236448199 -0.3452688007057058 -0.2754585600728455
Ar 0.3897190100626572 0.9609875237051053 0.9016240343970336
13
algorithm=bh size=13 seed=0 index=29 energy=-38.3139875755284 step=30
Ar -0.3395574729655678 -0.2110189141251829 -1.038221518706579
Ar 0.2303624092171882 -0.7553059851781481 -0.2699991040538639
Ar 0.2569666930105609 0.5223022526647371 0.9071693680562867
Ar 0.9615370178403179 -0.07341498367663415 0.2362941869918781
Ar -0.7567424106517536 -0.4351451713468246 0.2467630628045432
Ar 0.7898130952408207 0.9837208565159015 -0.02413665119967973
Ar -0.6342167077915519 -0.06630635798219058 1.316742827754774
Ar -1.102538101263423 0.35493860105792 -0.4631086700451746
Ar 0.7379506703506654 0.1222465659236126 -0.8333109631089641
Ar 0.1849377362280485 -0.5842218982292035 0.8115472239223185
Ar -0.04740889475805992 0.2949804773961823 -0.1075786042073947
Ar 0.5300397309762741 -0.8499960327304461 -1.336591054903807
Ar -0.8111437654335254 0.69722058971028 0.5544298966956681
13
algorithm=bh size=13 seed=0 index=30 energy=-38.29251974768174 step=31
Ar -0.3055343176472595 -1.110658654875118 -1.214428680503989
Ar -0.3470403088218974 -0.2796438698691748 0.3955666995232843
Ar -0.757077608474756 0.5753453133446064 0.9794807650044525
Ar 0.5636828259903421 0.08962796120244544 -0.1712899601788772
Ar -0.8781208381597724 -1.01462884257953 -0.2508273688262946
Ar 0.7036543197728798 1.167663059747956 0.07021407786416214
Ar 0.3441928156032756 0.4599609636189161 0.8526248869954848
Ar -0.3879729616532812 -0.1251432093648784 -0.7049186751073657
Ar 0.5826873534448148 -0.4223898412969271 -1.16000785454474
Ar 0.6764769436646065 -0.5933470676538865 0.7003046165578315
Ar -0.3215972100328632 0.7475180990384774 -0.02965876155635101
Ar 0.2354648934955964 -0.9683882559984831 -0.2525357833287653
Ar -0.1088159071816776 1.474084344685624 0.7854760381011441
13
algorithm=bh size=13 seed=0 index=31 energy=-39.46750958554952 step=32
Ar -0.3935323649280373 -0.365165054320632 -1.070317604713534
Ar -0.1819200416119051 0.3436568455220749 0.2550552427487427
Ar 0.9369045829653646 0.3298770065337079 0.3988449487423529
Ar 0.2430850831361609 -0.01165632619738731 1.209989833921243
Ar -0.51166499690016 -1.060469978032719 -0.2177553731703829
Ar 0.4381844583730719 1.136690364337793 -0.1980834942084241
Ar -0.6484386746976026 -0.5214558412104345 0.7446615289342499
Ar -1.058790154460034 -0.0941647907244387 -0.2234978042980926
Ar 0.4862522215168775 0.08883704537279898 -0.5859342499597161
Ar 0.3668394201057974 -0.6139853777426885 0.2758523193954004
Ar -0.4411647473848533 0.6985115671659182 -0.7512479292071355
Ar 0.4647632964617602 -1.009305754834054 -0.7587333870956816
Ar 0.2994819174235588 1.078630294130054 0.921165968910981
13
algorithm=bh size=13 seed=0 index=32 energy=-41.04458337370502 step=33
Ar -0.200736680353007 0.1362289976701428 -1.146097102672909
Ar -0.3522195845948485 0.6074300388731428 0.6324092917276507
Ar 0.5098021837191555 -0.07203893954776544 0.8960058235501429
Ar 1.240633305972195 -0.09530860137916275 0.03224478381571814
Ar -0.4602262119470007 -0.5135256670222816 0.5435704650869401
Ar 0.6961207211127729 0.8857380159387925 0.3213587654263081
Ar -1.34692280789606 0.1239118831432923 0.7599225826346993
Ar -0.8962284996031061 0.1528027210499425 -0.257691853428488
Ar 0.6858374478004869 -0.5589687531189318 -0.8754905535447074
Ar 0.507065619558714 -0.9437739121722383 0.172137742546065
Ar 0.1834218235546385 0.05268657177713409 -0.1390135377105612
Ar -0.3658230044587868 -0.8037934095747914 -0.5366652603038753
Ar -0.2007243128651715 1.028611054362721 -0.40269114712698
13
algorithm=bh size=13 seed=0 index=33 energy=-40.24277387760884 step=34
Ar -0.3896684232989052 -0.4767838316715199 -1.284209689014557
Ar 0.4973995170387013 0.3695589363839663 0.5372547618997014
Ar -0.03371946937561215 -0.1331646466091242 1.367268987056756
Ar 1.10366425350042 -0.289017452377844 -0.1358538936288523
Ar -0.6584549443644704 -0.7928616439085542 -0.2564601242276369
Ar 0.8528663222295677 0.8024457851608344 -0.4127025866984337
Ar -0.301041111082637 0.9287219372576404 1.059139238406998
Ar -0.5943092792780172 0.06427706247684187 0.4350014770988064
Ar 0.09832644807593642 0.009452199313869709 -0.432345020729846
Ar 0.220093362080888 -0.6977192729713555 0.4251921098501671
Ar -0.9483192976107989 0.2538087442797987 -0.6016569081550865
Ar 0.3784131094275717 -1.024907017126078 -0.6347238753013315
Ar -0.2252504873425888 0.9861891997915982 -0.06590447655695589
13
algorithm=bh size=13 seed=0 index=34 energy=-41.04458337788507 step=35
Ar -0.5372205722331758 -0.1202180429192641 -1.450506354695495
Ar 0.04750550124373131 -0.05195308689478022 0.225366793574021
Ar -0.02413387116873578 0.5729711374488596 1.104726930769824
Ar 0.9684593182588028 0.0675793496906037 0.778985357737161
Ar -0.4525953321092668 -1.010092152212329 0.1880652860569138