55
algorithm=bh size=55 seed=1 index=0 energy=-252.5364489867771 step=1
Ar 0.04429350516341737 0.8119598189011141 -1.115454189828514
Ar 2.073725645509764 -1.223982522706156 0.2724558987930959
Ar 0.8085979823652691 0.1808258169897287 -0.574299488986904
Ar -2.35521115099905 -0.2130693905791419 0.1997695382806768
Ar -0.7103202765829507 1.242923073817744 0.5179226349621202
Ar 0.2141680924946403 -1.393386347738817 0.7229524557785918
Ar -0.5522888136980295 -0.6973071732871771 1.141860305122214
Ar -1.530645453416997 -0.3312095391847668 0.9091844929645641
Ar 1.775290220921986 0.7329073196985098 -0.3517186057320866
Ar -1.425291075951084 -1.302937960718695 1.430405333599101
Ar 0.3343442753324629 -0.2547862597237711 0.5742153593123004
Ar 1.942275506587722 0.4243278525930737 1.812017589729929
Ar -1.950935370265847 0.2934498258194867 -0.7408482471459642
Ar -1.066777764011419 0.5914858380717544 1.359322923778335
Ar 0.4098527802916251 -0.7619719401868935 1.604088389532706
Ar 1.081533633116865 0.04131618022416456 1.289922017077418
Ar -0.2289754983665419 0.06545288789841069 1.87603401711258
Ar 1.455026820718361 -0.7865012243534795 1.912607566768375
Ar -0.8374191203434658 -1.711709846478129 0.6085295305134082
Ar 0.4174274681412553 1.577896277678243 0.5158277765078999
Ar -0.3231416762308991 -1.633023704895161 1.642876452594022
Ar 0.8379035197586908 1.304700116538927 -0.4766569823718211
Ar -1.249810895187194 -0.3368293873271202 1.957426258788912
Ar 1.073176701743949 -1.777210776708052 0.1245556500932586
Ar 1.936479460286594 -1.567605271731487 1.299407029964746
Ar -2.186884833151101 0.435734531335926 1.28245709998236
Ar 1.541886712358152 1.546769730098014 0.393336225893849
Ar -0.9274594318705029 0.6807750919349003 -0.4938423851138439
Ar 0.8660391551829747 -1.749413070763964 1.525555801728384
Ar -1.322063567252018 -0.3413838192688036 -0.1573717424216389
Ar 0.5833958098060477 -0.8757741956542772 -0.2391891881493867
Ar -2.096359832090049 -0.8446074851470747 -0.7077791286476363
Ar -1.629665237398803 0.6181873526445245 0.3402886043936514
Ar 0.986256886001005 0.6164716463635486 0.3982036189334299
Ar 1.994246403297661 0.563205543798614 0.7211657731247024
Ar -0.2227939077081715 -0.1362240517671045 -0.6342800674477389
Ar 0.709805525893804 -1.722737180141912 -0.9584540117453979
Ar -1.797120339116022 -1.207383267208434 0.3429561921049435
Ar -0.07727561431431887 -1.856031449454305 -0.2060997546380356
Ar 0.04873326521825574 0.7038327891567584 -0.03152911017274163
Ar 1.107543257514377 1.131312514110594 1.342017446539822
Ar -0.6527731115289341 0.1418086240632255 0.4844551956501751
Ar -1.12116743437612 -0.4679733237416538 -1.194088921551803
Ar -0.4451156807396007 -0.8639250612931048 0.08576783852129155
Ar 2.161159880562745 1.448000813583924 1.345818433639477
Ar 2.093161064418349 -0.4517183560511398 1.081090250116208
Ar 1.732052000471422 -0.1107726638587009 -1.059850885033576
Ar -0.2214373400747151 -1.134805782343788 -1.015120565761197
Ar -0.2565888184569388 1.651613987339241 -0.4241069197231905
Ar 1.551632265927634 -1.103121733511892 -0.6659751631003068
Ar 0.7266731500450663 -0.6298952514379115 -1.290771565473724
Ar 1.162016558196285 -0.9398173506933694 0.822341249228015
Ar -1.146841816738208 -1.417204670388515 -0.5097302081054869
Ar 1.537032085853336 -0.2681471336963431 0.08593346387101669
Ar 0.1072999457050957 0.6886196533612055 1.071825762898467
55
algorithm=bh size=55 seed=1 index=1 energy=-255.0835311515122 step=2
Ar -0.7959641919043782 1.085129220723386 -1.585011627563137
Ar 1.963766591418022 -0.6932167680013154 0.02589532119182703
Ar 0.07764366666008023 1.1315413311831 -0.9415425612483168
Ar -2.164789191381899 0.2246408056593944 -0.1630891893196403
Ar -0.7724647952422651 1.846698669722463 0.4745791683374726
Ar 0.09707914157222419 -1.244633357402408 0.2635492241291626
Ar -0.5930521001661194 -0.526456860599062 0.7609168644349097
Ar -1.762715611636772 0.03798635448654902 0.8667839960983715
Ar 0.5825939760922106 0.1737168114242805 -0.8506078673788886
Ar -1.452001415058012 -1.003324539865075 1.190268479600068
Ar 0.9122484052139239 -0.433262268271926 0.1358946838602473
Ar 1.901192904700475 0.3564386690614927 1.627655398537871
Ar -1.500662823098954 -0.3015989405779108 -0.9076151503423769
Ar -0.7132084769939576 0.5280174581007127 0.9467768295611645
Ar -0.1492376221666244 -0.4122233199369034 1.76243687079747
Ar 0.3749069563583703 0.198420508626101 0.929901184424228
Ar -0.04204479951135055 0.6743265543765995 1.820433516006079
Ar 0.9054485441720919 -0.06621539580562635 1.831604137906011
Ar -0.9631806003953184 -1.579386355612461 0.3566319259384924
Ar 0.191619816328756 1.825778770279942 -0.1018691648447657
Ar -0.3695706585672485 -1.431301894789243 1.295533824571436
Ar 1.158169504594336 1.104373456208767 -0.9712830693201753
Ar -1.158325027746719 -0.06786340480297451 1.755264407397158
Ar 0.7959647271737591 -1.709699948717522 -0.5015076020631184
Ar 1.603525186863073 -0.5586808264394671 1.06586452020726
Ar -1.524710890465394 1.042169998550838 0.3592630460348719
Ar 1.033564327569276 1.686195584558393 0.6068088137254606
Ar -0.5101976741245356 0.1740971630898098 -0.917195621116535
Ar 1.22666455105824 -1.425879089899627 0.457701388674073
Ar -1.109599968274114 0.1072216072274234 0.0308965841431272
Ar 0.2528298430276231 -0.8096055134724685 -0.6964130546963372
Ar -1.583139385664646 -0.9383196067212968 -1.802713151171603
Ar -1.392374143345862 0.8131850463096112 -0.7245059602479282
Ar 0.652468262801617 0.8217226528428297 0.007014334775576967
Ar 0.9720700650324131 0.9743424741716783 1.453810817526863
Ar 0.08364691133457298 0.4484591564350428 -1.804783759108367
Ar 0.2957015208494023 -1.582035818913518 -1.487992283141317
Ar -1.719488269434936 -0.7909935035959268 0.1118619871454751
Ar -0.3527988226221746 -1.751796232866295 -0.6155432449693584
Ar -0.04226629697996451 -0.03015171079820342 0.004857007474839605
Ar 1.752085044212687 1.223374675402276 -0.05448953603481959
Ar -0.4660220697088994 0.9410287774079007 -0.04315000838236131
Ar -1.007491754372432 0.03489197335030116 -1.868256751035356
Ar -0.7204454268420386 -0.7864727595858272 -0.3154450776483413
Ar 1.969579213529309 1.287995228319016 1.036627298137387
Ar 1.422945239685858 0.4114241806887154 0.6306691994341552
Ar 1.385749377524443 0.1658735960303831 -1.562748008500339
Ar -0.5681554701961407 -0.8556216616830733 -1.385744287441939
Ar -0.8056452036996735 1.757989692458951 -0.660570746526885
Ar 1.299051961924796 -0.7438696069318257 -0.8841883031851048
Ar 0.519610604119922 -0.5356222172743248 -1.704240195149168
Ar 0.5717050063638874 -0.8539010878811684 1.122702327222977
Ar -1.420176821829463 -1.425529765157799 -0.7994157687162715
Ar 1.579838264907159 0.2262911959688426 -0.4438574050713671
Ar 0.07805989634119169 1.254330842938426 0.8615762369297904
55
algorithm=bh size=55 seed=1 index=2 energy=-253.8172775421515 step=3
Ar -1.053590578226752 1.78735742721157 -0.4144490825215886
Ar 1.611321969284482 -0.4855602437792957 -0.05931034157916751
Ar -0.164637081875195 1.220661723821463 -0.666048900122665
Ar -1.931713444472287 1.089412044240511 -0.433694488602418
Ar -0.5862005486489982 1.456693618465809 1.472112466221149
Ar 0.06646091741317534 -1.487135618789724 0.5208985511857357
Ar 0.6671199073604178 -0.5509435799681222 0.5158533693210399
Ar -1.865059690003887 0.3724078056771943 0.442492929628746
Ar 0.7151719361991606 -0.01674935550872643 -0.4589890390808843
Ar -1.812301938043004 -0.9728227330449863 0.6837632805141939
Ar -0.003013139973261472 0.3581817919484344 0.2404934807146268
Ar 1.557169105679508 0.5148593881031511 1.528990114189065
Ar -0.8713293342147502 -0.75833684357741 -0.8980143427792381
Ar -0.8373212615287833 0.5662063759973437 0.8924014956265595
Ar 0.4874970317057428 -1.084662589931724 1.45560197222921
Ar 0.6167521254424054 -0.006085086342172889 1.430616873481253
Ar -0.3453320387427845 0.3438001046900332 1.812813131404187
Ar 1.271769412623987 -0.5417608452014171 2.109384215041112
Ar -0.9580188583869331 -1.379513446792992 0.08957462468915554
Ar 0.1159113551254575 2.179740059996812 -0.233800396890648
Ar -0.8383835623457919 -1.297461855763282 1.174346607286931
Ar 0.8401638501953367 0.9692946997272968 -0.9654633145135855
Ar -1.306565972916627 -0.2767753279233638 1.351429468780043
Ar 0.6447065691873018 -2.225555999353723 -0.08523557040922519
Ar 1.585126245505555 -0.4993734577853356 1.059136247666518
Ar -1.467554425511819 1.40919292432056 0.5643303071051564
Ar 0.4275770962262969 2.02065347415624 0.8303144943305896
Ar -1.082064204916002 0.9202864095693648 -1.202829144564942
Ar 1.189804403164889 -1.489753989954343 0.6601384814864669
Ar -1.083671079388322 -0.3052573231727046 0.204812575178709
Ar 0.8023607018075095 -1.186102645573373 -0.318149314743053
Ar -0.3982083503642139 -1.422552065915114 -1.660845245555891
Ar -1.582848022668988 0.05908351951758509 -0.7203403278384456
Ar 0.6135746248519724 1.217045942155945 0.06706074406866942
Ar 1.34331543579761 1.394368647356529 0.8715837609211469
Ar -0.07748175707910332 0.8190174424967268 -1.677524269465295
Ar 0.6765101584635452 -1.711676726745001 -1.290522801002405
Ar -1.834446108481214 -0.9601967332396544 -0.4146304653965672
Ar -0.1658487101582539 -1.645800478504338 -0.5895032717065096
Ar -0.3128942185603146 0.1691674182418991 -0.8141618279671016
Ar 1.656803505676057 1.060982926215762 -0.1829287577621292
Ar -0.9636714657969534 0.7123002382070257 -0.1449863057264354
Ar -0.3989940212669921 -0.2595950085721089 -1.824851586237909
Ar -0.1536894956642318 -0.6539659972547851 -0.1120000559181275
Ar 1.221406671995273 2.103935500571709 0.0070305765016138
Ar 1.135953112841036 0.385600538733182 0.5056236539668174
Ar 0.7040269858777245 0.07319460871257959 -1.571812851797996
Ar 0.2105543806927956 -0.7451375155722127 -1.088425215215582
Ar -0.3869093384051594 1.435180106362959 0.3980080745066807
Ar 1.298848750765888 -0.7659960810699263 -1.179937397766879
Ar 0.5429921340431411 -0.9114472598517627 -2.088909677711963
Ar -0.2899255697201895 -0.4010269588426217 0.9637227159890325
Ar -1.215074364949662 -1.787203575305749 -0.9218434854672456
Ar 1.665023068178391 0.2367622920061086 -0.9264959202787411
Ar 0.3188271262045115 0.9530623148326163 1.093169186587655
55
algorithm=bh size=55 seed=1 index=3 energy=-254.6542725900792 step=4
Ar -0.9934827900782816 1.251323745426113 -1.371515136368566
Ar 2.008747780086443 -0.8464975666767539 -0.2566832250889588
Ar 0.3280812714214077 0.02547342638753184 -0.3651388886291104
Ar -1.935151416190616 0.7958947277108531 0.04638854292782895
Ar -1.570472845202608 1.896189703511259 0.3196447688283364
Ar 0.5122687277074685 -1.728869149089635 0.2640946855351831
Ar -0.6456109669965004 -0.4729161280810977 -0.5056318836021899
Ar -1.643639437491986 0.02936950540357661 0.8104021104698034
Ar -0.03820674710893447 0.896465425366845 -0.9245607729895989
Ar -1.098561181348211 -0.7282166775991741 1.491770722575749
Ar 0.9884096809158726 -0.7335050279248061 0.07501990598621533
Ar 1.922646197070459 0.3467260753970884 1.597866788014749
Ar -1.679906678252302 -0.242246506134927 -0.2555202328982275
Ar -0.6046367470105916 0.08050454126535402 0.5153318432082538
Ar -0.08289167952269506 -0.3448137302529394 1.360083117794105
Ar 0.6146128127541891 0.1623852751521281 0.6640620158632703
Ar 0.1102799260250359 0.378792466793397 2.154422628885435
Ar 0.9613530762915076 -0.179764142476201 1.672601884836197
Ar -0.5084639638974413 -1.628228216705667 -0.1050384805548947
Ar 0.2872875036393348 1.901506237817423 -0.2524431253839265
Ar -0.3436508639638 -1.466037297582571 1.059972220325459
Ar 0.9198009578730789 0.4326913608686719 -1.208639171460955
Ar -0.9331118750822116 0.3481815221893327 1.590446486663579
Ar 1.225372754585548 -1.610575448103795 -0.567370456126689
Ar 1.707799200038005 -1.0077447333268 1.603759581435056
Ar -1.066168298315154 1.010595448018652 0.6708941911867028
Ar -0.07944834007860307 0.8443440547683887 1.188515703095903
Ar -1.795021977709459 0.5009461163548855 -1.068429415841289
Ar 1.592122887683634 -1.479363863971548 0.5628446758521042
Ar -0.9540511119523057 0.5733250827842229 -0.3855972368427063
Ar 0.267736706278264 -1.070776229998714 -0.6021088025364695
Ar -1.477895426361523 -0.577621511069646 -1.300978447171135
Ar -1.801976776192421 1.562898456425372 -0.7144488456655338
Ar 0.678479390533419 1.481177388647556 0.6936176476579776
Ar 0.9417089074729981 0.8880928443339523 1.568852363460873
Ar 0.1193367944536814 0.5671224650481371 -1.963586535503922
Ar 0.582439549632879 -1.343981294100468 -1.59154952568249
Ar -1.101879897134502 -0.8827082674391288 0.4277022878031366
Ar 0.2216407278944641 -2.112737289573059 -0.8113937063668364
Ar -0.07654431949769462 0.9214866674883463 0.1378919503970403
Ar 0.8992025732897068 1.006273963909096 -0.2778748440589245
Ar -0.7549381969055335 1.625801663915421 -0.3627127124858551
Ar -0.7701899902733711 0.2104326953547583 -1.394033986633032
Ar -0.01749585348757312 -0.7498815800972924 0.3548582755906325
Ar 1.524155221174512 0.7757409525373481 0.6330367600850583
Ar 1.648572546168951 -0.3135758271589388 0.7698387537487305
Ar 0.9383701914278822 -0.3067243190968302 -2.053421692533562
Ar -0.5678401092802807 -1.287462592362343 -1.236758775703928
Ar -0.1349830105655074 1.930784843263331 -1.269703018797061
Ar 1.163468310098189 -0.6009080297847111 -0.9993426846698205
Ar 0.1158158344922158 -0.3562566102966378 -1.359291059672697
Ar 0.724266151237303 -1.043491778296672 1.087896852421975
Ar -1.455284533720041 -1.311208949811527 -0.5160095715677281
Ar 1.502882785877148 0.1349742575539946 -0.2622901667538655
Ar -0.3753534325035107 1.846611853318949 0.6602556369406507
55
algorithm=bh size=55 seed=1 index=4 energy=-247.6727633493395 step=5
Ar -1.29457534153134 1.161406900034852 -1.600550536478581
Ar 1.085183777545033 0.03500445807697821 -0.848651272946302
Ar 0.5032484976671434 -0.1533038319946616 0.06414919097930107
Ar -1.856376832969123 0.181270420103495 0.2945139566370917
Ar -1.159565891134278 0.9920612090095878 0.1479852713313281
Ar 0.8221735479152686 -2.127285492665798 -0.3727936821741429
Ar -0.8032847653281964 -0.003325326032198676 -0.2012374175225349
Ar -1.212577118986231 -0.7136918708281009 0.4960889421404422
Ar 0.3611483852436504 0.7421342620036753 -0.482638615036182
Ar 0.2442314890156303 -1.181289881114046 1.498931766009018
Ar 1.712314996306904 -0.9025836438429362 -0.9638045565768832
Ar 1.729384527301852 0.06471593654452029 1.00746732496894
Ar -1.815408163035462 -0.6170759239052837 -0.4323147247153371
Ar -0.1837164311143505 0.8026606737282022 1.512164102132586
Ar 0.03828459789006836 -0.1774003659209622 1.877107072337632
Ar -0.1834281916554404 0.6099727194722194 0.4207808745331414
Ar 0.8050199724003965 0.6929082180104651 2.026014816603874
Ar 0.6511250581533313 0.2861867134759339 1.041172453939987
Ar -0.282150515532694 -2.022647129245174 -0.2371669210352423
Ar 0.867232578973547 1.677018689479211 -0.2218026870448983
Ar -0.5679025572162507 -1.523981912380366 0.8058269985406301
Ar 1.198245944729062 1.086879913927839 -1.099205520294957
Ar -0.9785834985513705 0.2329616711393425 2.075904994429256
Ar 0.7611948096487935 -1.013266497153571 -0.4819158573551243
Ar 1.108869798427423 -0.3631230908595365 1.843428635308729
Ar -0.6495209593081637 1.559745297857028 0.9199252621313296
Ar -1.011349358341837 0.2523748532858988 0.9884149475562982
Ar -1.613810418092185 0.4256738910390674 -0.7755805160904113
Ar 1.533690864511178 -1.444217775383213 0.143741080204234
Ar -0.6303000008552482 0.9104661706082415 -0.7860866964873419
Ar -0.2812519885194837 -0.9476020378630324 -0.1057832047814533
Ar -1.773786018667047 -0.3634782764607205 -1.531878400497706
Ar -1.709999057339295 1.507398052421532 -0.6310598521799521
Ar 0.471579824773658 1.369115789470076 0.7711582920510438
Ar -0.115189447258917 0.6429469814364271 2.623471114385231
Ar 0.2901654273042956 0.5187664129974808 -1.559695999829076
Ar 1.025156861772382 -1.706996209118836 -1.348651425533258
Ar -0.8707717842526652 -0.7535274131113702 1.569193975408449
Ar 0.1703856989739681 -2.454772057626417 -1.195650691943587
Ar -0.2198400795616776 1.596102819050191 -0.07613318764021403
Ar 1.213737409560045 0.6789570481947129 0.1757705726239533
Ar 0.1671668714535733 2.492865572861611 -0.5712069498390947
Ar -0.8051722888347299 0.1632660492985558 -1.508624393527048
Ar -0.1685980910793717 -0.4274356114026371 0.8266585584975085
Ar 1.429106177818649 1.094197928086935 1.198416762751719
Ar 0.9910430669180067 -0.7254243306441829 0.8304760858407214
Ar -0.2822555439782226 -0.6856657192263137 -1.907818283217548
Ar -0.01173593125060565 -1.382098404188693 -1.106914573517754
Ar 0.1972251610058234 1.56092607125678 -1.162737568824128
Ar 0.7555828456212997 -0.6772620629445498 -1.574775833732926
Ar 0.01144683792449136 -0.2580418569687136 -0.8860813573464303
Ar 0.4456326849640973 -1.540668873636607 0.4481775221951016
Ar -0.9201097345317227 -0.8037302631694916 -0.9869047257192154
Ar 1.59647781752587 -0.35964195109041 0.004059936529516642
Ar -0.7847955224170355 1.991553085896216 -0.9533350581816218
55
algorithm=bh size=55 seed=1 index=5 energy=-255.4921332287945 step=6
Ar -1.562102544669086 0.7015493205428976 -0.6321878425537185
Ar 1.806437590373761 -1.807101925093286 -0.1413382984527323
Ar 0.4917994561113702 -1.006187995953523 0.1343021014180608
Ar -1.887195631148758 0.4015438963251738 0.4065713132634954
Ar -1.716775547662659 1.485351930690624 0.2156706263688289
Ar 0.739993642672366 -2.00775192293133 -0.2646356630632046
Ar -0.6726771075789929 -0.9529987890697607 0.4679792200228343
Ar -1.379948558579595 0.9764247772259101 1.188115625661458
Ar 0.3636191468776525 1.191427641904333 -0.9330757215457121
Ar -1.844097553563452 -0.02242641241440059 1.475384893253987
Ar 1.386339463463672 -0.8679689617072365 -0.520329273588347
Ar 1.815153319813047 0.04947182210770486 1.040772497382057
Ar -2.080109141569735 -0.3022337875636124 -0.4775462317374108
Ar -1.728062967571776 -0.691830881581883 0.5696007334547406
Ar -0.0447905504199901 -0.2652491571442764 1.428847947326065
Ar -0.2977871012175997 0.4008655446075056 -0.6099677304982505
Ar -0.6005071737332509 1.413922836626918 1.863046046934982
Ar 0.7706143939302835 0.4295739566354492 1.122585367575576
Ar -0.3200248530327719 -1.704733596831383 -0.2580001342982745
Ar 0.9973692748778161 1.704745767304779 -0.1848981969068567
Ar 0.07657454434016307 -1.339457987782179 1.125533811154538
Ar 0.6133039919307444 -0.1486263571610071 -0.6971110214419749
Ar -0.8419279222721198 0.3223506670296604 1.926164407511822
Ar 1.343586935092515 -1.753897067411039 -1.183958668410111
Ar 1.800570311797451 -0.891713499195798 0.4806701286719052
Ar -0.9468539798964264 0.03746785380645405 0.8979718341870684
Ar -0.2198329729184839 0.8146576742775402 1.039277989473597
Ar -1.09811766808606 -0.1131492208273915 -0.111251566081424
Ar 1.085796295059734 -1.696703913005958 0.736860119520244
Ar -0.830133875009342 0.8857398718695765 0.1809297662557
Ar 0.4367899930810407 -1.222446080050669 -0.9487835275056271
Ar -1.068247363745657 -0.1901515419288717 -1.183143880391897
Ar -0.7263913668847605 1.367956444567934 -0.8393339958609516
Ar 0.4640032136132205 0.7736685165806493 0.08416213184915944
Ar 0.6111860910682801 1.518069860727581 0.8693260261217189
Ar -0.3426832058060855 0.6718135255060956 -1.645259560310614
Ar 1.03903842730931 -0.6953120330503534 -1.644181179083269
Ar -1.008433520508297 -0.8320916550308317 1.517916284082694
Ar 0.1053501420384711 -2.220110456306944 -1.168745228977171
Ar -0.08202173112035738 1.664639665804849 0.01619446531420065
Ar 1.29399724255377 0.7030830623449593 -0.6001991581216189
Ar -0.9912140564317061 2.21582576375851 -0.2002890351755325
Ar -0.3161237761736358 -0.6586737222196097 -0.5134309277642248
Ar -0.03007019633686648 -0.09153542942660892 0.3625809231012145
Ar 1.497136095305978 0.9240359611977264 0.4489826728643644
Ar 2.07657074949516 0.0499231403504292 -0.09690302490144082
Ar 0.784779491222474 0.408049439516848 -1.593905311185409
Ar -0.6131066628335951 -1.323709423576766 -1.304606424496624
Ar -0.02282032918530649 2.235977630233988 -0.897806928195912
Ar 1.770700655802135 -0.07030871707105479 -1.165676687142297
Ar -0.03247949349453051 -0.380705949857895 -1.533447600145064
Ar 0.9342669905045169 -0.6655023945428876 1.131125239547802
Ar -1.305549855741893 -1.12549824755228 -0.4405165009303288
Ar 1.080379737495853 -0.09430006843261277 0.2350551433638482
Ar -0.7752704886379707 1.79424062317748 0.8249020030839819
55
algorithm=bh size=55 seed=1 index=6 energy=-256.5986725615109 step=7
Ar -1.308720636448045 0.6634040828607299 -1.262628113502516
Ar 1.602411523402379 -1.240898648587349 0.0170940381130391
Ar 0.5574563545436725 -1.457825457623874 0.2975688245519824
Ar -1.962254721525447 -0.4536689979163918 0.1368196814548254
Ar -1.46801941946736 1.259046138410674 -0.3546435449147068
Ar 0.8193039137728231 -1.393952147806236 -0.7495290203384711
Ar -0.4768695767597061 -1.49369722640276 0.7396190837166775
Ar -1.873324298621733 0.5755383880467081 0.4984036868098517
Ar 0.6313826587873045 1.206888666946705 -1.225106971075392
Ar -1.21195381471172 0.523558723093725 1.484418472082829
Ar 2.154766803326706 -0.4310587984184187 0.5554585198343914
Ar 1.604997502299457 0.288043781774096 1.260814144724843
Ar -2.183453358999999 0.4078041252900864 -0.5740023297863833
Ar -1.493368313882584 -1.153820632996365 0.8863719678878984
Ar 0.3983877129378617 -1.306803333019521 1.419069849540275
Ar -1.165318819616046 0.2031953973086033 -0.2827861228519257
Ar -0.4476031137773532 1.333910585854808 1.483972136315965
Ar 0.7354348680333556 0.2739258341813531 0.665628005667822
Ar -0.297959092636612 -1.809560943831956 -0.304740239911173
Ar 1.511050025374487 1.451403975716772 -0.44300833121942
Ar -0.5371124365874202 -0.6067526678903632 1.574571205627559
Ar 0.3538297093578536 0.1220430466760876 -0.9549129524311682
Ar -0.2698227306581419 0.3995055291994546 2.163198259370712
Ar 0.1822346923775396 -0.8381949042762944 -1.490929890360775
Ar 0.9514396488315542 -0.3623781865331356 -0.1812253940118243
Ar -0.8639555496180811 0.9174809880087954 0.4830920197624765
Ar -0.2119108797156263 0.3492835604292345 1.1075778107969
Ar -1.010433719559692 -0.1968566866672525 0.6834246631764116
Ar 1.358014863768395 -1.757716852675153 0.9939951174504624
Ar -0.1487711656976762 0.181032500165524 0.03404468892888935
Ar -0.6333629369784479 -0.174205446588208 -1.122400971182735
Ar -1.650996502466427 -0.5203692409727163 -0.9382893930857333
Ar -0.2981745075995236 1.854440514438815 -1.1733527018391
Ar 0.6936652680870181 0.7952378372732424 -0.2355870485287794
Ar 0.6169111783802181 0.908008565351633 1.544651669923719
Ar -0.2709261911906944 0.7737926120641947 -1.635897393492637
Ar 1.195304120413601 -0.5301578728531827 -1.286922828517833
Ar -1.970604287325527 -0.2359934183737777 1.243407374850083
Ar 0.06006276914038099 -1.927277515726452 -1.345322813658612
Ar 0.4485346431046402 1.835628170499479 -0.3271396748577545
Ar 1.415361716106835 0.4734374810705071 -0.976376374959355
Ar -0.6010616252793733 1.873613164310578 -0.006743213239861129
Ar -0.006119037918291704 -0.777019606294891 -0.422770034431377
Ar 0.07823558350665791 -0.5920069800264129 0.6759416424333502
Ar 1.223741688605671 1.267623724891422 0.6496753063446447
Ar 1.669386412986791 0.4381965335373432 0.107862541280474
Ar 0.7312532501637788 0.2935529090995423 -1.929889066653889
Ar -0.7885581575948286 -1.244790688254714 -1.127822661142503
Ar -0.3850486551749397 0.9720291073423325 -0.5826595685385741
Ar 1.998299281935447 -0.380860668274354 -0.5508671256829658
Ar -0.2932771602374148 -0.1591972659320423 -2.186050412044373
Ar 0.5456581259323234 -0.2132557842849192 1.64346474974383
Ar -1.003068083971727 -0.9251101038273637 -0.1012334968138245
Ar 1.151656823569718 -0.6927311800963153 0.863979531433832
Ar 0.1432676552882825 1.234535312306636 0.5587126972520595
55
algorithm=bh size=55 seed=1 index=7 energy=-255.2525459381915 step=8
Ar -1.275137742454633 1.154817406525982 -1.615126010789754
Ar 1.381952904946094 -0.7909988160275967 -0.0165981025449286
Ar 0.4881995435530133 -1.303649059017639 0.394099751783758
Ar -1.998719394373035 -0.6760104008741431 -0.3256838282215294
Ar -1.28454559562349 1.693658659044631 -0.5804440437054817
Ar 0.5072660975451606 -0.9674506235383181 -0.6326108258095571
Ar -0.4039818917685449 -1.912487702731134 0.4490592084941389
Ar -1.993534272350423 0.2496644006654777 0.2813837081672325
Ar 0.810536784401806 1.689373675419482 -1.44227203558263
Ar -0.3170701892126717 0.0930234079127308 1.67655592993957
Ar 2.288605906284033 -0.6322687804230249 0.5802123510692541
Ar 1.339263675433424 0.9769497572393318 1.229188108906095
Ar -1.752044653205083 0.6711533912331819 -0.7351027729876625
Ar -1.29876744264846 -1.609165882133811 1.100092910364171
Ar 0.5117948882199362 -0.5829560840578866 1.253577239013794
Ar -1.09490968410992 -0.05546507150284818 -0.2970480574900702
Ar -1.116852069706442 0.8991959376715706 0.2003633993313419
Ar 1.052493675135139 0.734094214468456 0.160813500575293
Ar -1.313717435778204 -1.529586494277986 -0.01710754912690272
Ar 1.47880566989029 1.02952331252785 -0.7880282615016917
Ar -0.4273472940492334 -0.9800816177584616 1.013290207024966
Ar -0.1053234086613217 -0.07677239771791727 -0.6963901858526018
Ar -0.1559940769658595 -0.9240831358575627 2.074115090131239
Ar -0.2049570014511195 -0.8581619561242808 -1.463000679514665
Ar 1.375961738774407 -0.06844362155938602 0.8312188155919028
Ar -0.4802828599066635 1.044506929865712 1.060794053855351
Ar 0.4221298055638282 0.453917548817651 0.9896479118109998
Ar -1.341705550184158 0.3532663242937203 1.178504601685577
Ar 1.389101641744952 -1.179058172702093 1.02458741378018
Ar -0.5003141690465107 0.01543691647780112 0.6042326323051284
Ar -0.9906745406901944 0.02782508144034354 -1.403452149143211
Ar -1.114194862464335 -0.9530215174581896 -0.9128265187292709
Ar -0.2101054853568659 1.829991885411062 -0.9162065134157213
Ar 0.3910903395999885 0.8553948048575007 -0.9361836880720398
Ar 0.3271519272932148 1.108005786339082 1.832164378170193
Ar -0.1810386957563978 1.21264896179327 -1.80288520676958
Ar 0.8627478856442879 -0.5810532064965085 -1.594429076590937
Ar -1.184014039810982 -0.6188090544124205 1.69226805458852
Ar 0.5431859841141602 -1.672475459234411 -1.459284080474902
Ar 0.6669437080008117 1.665347339333159 -0.2864656678470693
Ar 1.821250413810432 -0.584511344221425 -1.011472389650144
Ar -0.4211005782054483 1.757546111796558 0.1570348129947404
Ar -0.4317311182645762 -0.8682330243605146 -0.04078923023603798
Ar 0.4655832443146597 -0.2443784892569267 0.2029949628868212
Ar 0.4768847444809821 1.511486044024224 0.7743105823556157
Ar 0.9920142870674962 0.02303515091795081 -0.6886612151472385
Ar 1.104574290836039 0.5189407463304012 -1.688283599437655
Ar -0.3136377840941056 -1.713807960501621 -0.6884955464872194
Ar -0.6601305195895276 0.8443937090094472 -0.7916364535061458
Ar 1.931017563468728 0.1603249059218803 -0.1437629610072353
Ar 0.06113919079628378 0.1647170532295995 -1.736467301819543
Ar 0.934665673151636 0.1698955677570479 1.904848064787588
Ar -1.378017364333447 -0.6199363339062944 0.5960409804824515
Ar 0.3343695971571753 -1.677606698741429 1.398327680046616
Ar -0.008881461166555001 0.772337874568755 0.05098760131865309
55
algorithm=bh size=55 seed=1 index=8 energy=-254.758838178945 step=9
Ar -2.168030335019595 0.2788341362337088 -0.9609104144667387
Ar 1.570219010727569 -0.9684929043270853 0.2508430138411619
Ar 0.6723830045991647 -1.685547893799353 0.1191681172288617
Ar -2.076717512447698 -0.5786692340376958 -0.2651992723752375
Ar -1.273903996173366 0.9923774512506307 -0.7380841102193075
Ar 0.7025083607486278 -1.47818948166987 -1.013761214321365
Ar -0.857860995846833 -1.922903359407733 0.4214884634918236
Ar -0.8399672882028019 -1.047954804083095 1.134761911448516
Ar -0.593161387025151 1.172606638773482 -1.592601480446141
Ar -0.3247432056716805 0.8003510458321942 1.302273064505411
Ar 2.205830747320276 -0.06437223311917564 0.6006730935206156
Ar 1.579263679394475 0.654448418086634 1.173294748194786
Ar -1.679782075837561 -0.7138035135644611 -1.328027629573713
Ar -1.754681738782264 -1.293079685341193 0.5290677510917344
Ar 0.0524238880087092 -1.687296121130351 1.042639770986728
Ar -1.85040903831265 0.455251888337653 0.07250313532677534
Ar -0.3489962952970971 1.577554532448983 0.5591998310261055
Ar -0.2682026101303212 -0.1488288363831723 0.8070041572770732
Ar -0.2292997345289273 -1.89794035751778 -0.4979571497093813
Ar 1.224794603192132 2.100028723274458 0.5338203381579635
Ar 0.07458863849269738 -0.7392773828898695 1.702935794176129
Ar 0.7795356448044347 0.3513424063374515 -0.5732922667798892
Ar -0.8360992731332674 -0.1059706219016693 1.732090263085135
Ar 0.6142591009773866 -0.384332406331747 -1.360967076097583
Ar 0.6581627356450551 -0.6927048442356342 -0.2953700137504372
Ar -1.433042411632083 1.485223369936638 0.2694276682083263
Ar -0.7797002651003097 0.639910637309641 0.1896550691156244
Ar -1.384606895507615 0.5722458694143571 1.061488989980524
Ar 1.19716195943701 -1.594561887958591 1.116520816443016
Ar -0.179208850758099 -0.08538173713841297 -0.2714096524609823
Ar -1.353517216096491 0.3471641716299123 -1.675857897756066
Ar -1.161410322510035 -0.0697009299720481 -0.6573035033908043
Ar 0.243605754805434 1.788900501579053 -1.197585978044705
Ar 1.31531105710243 1.057840501109938 0.1855169335757677
Ar 0.6018296691831723 0.1975652513190909 1.329821169416325
Ar 0.4808261825551917 0.7652632232242127 -1.551858172386881
Ar 1.555326272532574 -0.6516179012544316 -0.8597542245426401
Ar -1.789486711421429 -0.4411799623847446 1.243800153790796
Ar -0.2684025730989559 -0.9070097279992742 -0.9513820659123012
Ar 0.4693534210297883 1.651350284776956 -0.1360164344405639
Ar 1.211970738769332 1.286368191948684 -0.8888283697433051
Ar -0.630178022488173 1.85277627620281 -0.4720448290625477
Ar -1.181445094309968 -0.3768623360233262 0.3493467172027954
Ar 0.5848562771789469 -0.7856670693942253 0.7652778203559225
Ar 0.6638477170126432 1.322764119377841 1.091669165272326
Ar 1.866871549159545 0.3050522432874814 -0.3925941490269345
Ar 1.482671430718939 0.3167558072459377 -1.422683683116247