55
algorithm=bh size=55 seed=0 index=0 energy=-168.3674159978241 step=1
Ar 0.5051845671968902 -1.061597929054251 -3.003135211967285
Ar -2.539263513293056 2.120481501919083 2.574750228269433
Ar -0.2384646964608737 1.781423927440992 1.272614111695383
Ar 0.8979024714819213 2.166646951396949 -2.84759442968591
Ar 2.667661828711435 -2.111133963730697 1.505434515919162
Ar -1.886663737024249 1.52856015650724 0.5121943910826114
Ar -0.4326515422500474 -0.7302392536170316 -2.479483478025931
Ar -1.816204853971484 0.8241320538294017 1.386782490880655
Ar 0.8480732282785263 -0.3341914721334437 2.474158380172552
Ar 1.796964590016189 0.256918372733727 2.548599668136376
Ar 0.8922706998293624 -1.713748318849503 -2.218182767730643
Ar 0.5631162350714998 -0.3548478510852651 -2.150733385284298
Ar -0.7339056354884371 2.02212326857451 2.269097275456267
Ar -1.147995835980637 1.281476619622434 -0.2858316745766973
Ar 1.240412722980682 -0.9666782994094356 -1.506988933858973
Ar 2.102668816056124 -1.159253197442044 1.441234306034643
Ar -1.702563970769901 2.567304694488143 2.013606278645491
Ar -0.6776588322495501 2.175610033341718 -3.758383829252101
Ar -0.9453149381764941 -1.487591745233107 -1.814961270631131
Ar 1.462744690618501 -1.698352092801139 -3.155068660743417
Ar -0.1691716739442247 -1.814546261372795 -2.538601945137183
Ar 0.4486963356250244 -0.2961984966298228 1.438384849876695
Ar -1.820383699353296 2.596210049340799 0.8897303132842385
Ar -1.708654579138774 1.436517096713673 2.330597837181986
Ar -0.9114849583453203 2.102539482648589 0.4341743923996637
Ar 0.1637357984377011 1.352918698419841 2.206832935819247
Ar 1.810359722581409 -0.853905657541503 2.488080917431551
Ar 0.07026607069009466 0.7298529422842565 1.250811289694257
Ar -0.8125086669509791 0.9618700084864614 1.875828039797305
Ar 2.779108902839336 -1.337177570872975 2.308165316012654
Ar 1.275074722266922 3.112319785698685 -3.317890905935429
Ar 2.756379004340459 3.657731892684057 3.476489688902762
Ar -1.507438348626041 2.247396841823104 3.053156548577511
Ar 1.489795392741272 -0.7645742138204966 -2.583454101776639
Ar 0.3832394728099139 3.157319758921925 -2.648583144390708
Ar 0.945686017518052 0.6236578725015229 1.917708972786908
Ar -2.382208263885102 1.812062773016438 1.500366914565604
Ar -1.303970480968297 2.382716519805885 -2.850476907638909
Ar 1.540756940057697 -0.2331916620765563 1.585290953789759
Ar -0.5860461901315281 3.15707617292696 -3.206253023838688
Ar -0.05741607699447469 0.260263526600605 2.260225238243466
Ar 0.1181413745508445 -1.20862458752207 -1.632711542264175
Ar 1.985864485153163 -1.618030015985087 -2.105229949817224
Ar -0.8918294600345353 1.009233693283813 0.7601110333217637
Ar 1.557030538719178 0.05300705408877179 -1.842060875231805
Ar -1.304706971582009 1.781295242243481 1.384115560307018
Ar 2.590847488201335 -0.2819265057743392 1.952077766846907
Ar 0.3101385947765377 2.666243691675801 -3.652612675732267
Ar -0.2044095132443335 2.214238523551175 -2.745789249924811
Ar 1.028672277969391 -1.201652963763918 1.782015424648614
Ar -2.069342984017198 -1.542523882335983 -1.919020965172112
Ar 1.801862852667441 -1.918528462797804 2.192140035316546
Ar 2.727337674828408 -2.420398531128042 2.575294318721045
Ar -1.519675226824031 -0.6228217277515778 -2.236585012861905
Ar -0.799577467366633 2.740923602122981 1.375932527408236
55
algorithm=bh size=55 seed=0 index=1 energy=-236.3821481895391 step=2
Ar -0.2252920708609075 -1.574699560621334 -1.835846136754137
Ar -1.228758922712564 0.3448078295920448 2.081986168170343
Ar 0.5105416810235157 1.204497431700547 0.4014584736916034
Ar 0.5967203478562886 0.1049961370550785 -2.223511938019305
Ar 1.167811661166451 -1.512279444627193 1.027884979030629
Ar -1.299143397840361 0.7891723532943558 0.2093949429267248
Ar -0.3599375331196684 -0.5285003406721518 -2.233705745586464
Ar -1.259027960303213 -0.302131877883056 0.2582048722937304
Ar 0.7215012175325902 -0.531009894248091 1.026657144213145
Ar -0.1555829978506301 -0.4442235755989253 1.688982649636299
Ar 0.1213131377583131 -1.500114673242716 -0.7793104902949703
Ar -0.08641061445090706 0.1490950932790367 -1.379412026471449
Ar -0.135503075245714 0.5504224231178673 2.098611634818765
Ar 0.3119360566522661 0.831614800512729 -0.6248752403491525
Ar 0.1102620025785717 -0.3977472344506793 -0.4695388457592246
Ar 1.689137138867445 -0.5910473520279284 1.469668034148163
Ar -0.7617402075087067 1.408007689871087 1.923648392531614
Ar -1.372344192722002 1.065717491263896 -2.034297077166757
Ar -1.296774005023714 -1.088256720444389 -1.894688835639683
Ar 0.9181047117084035 -1.745849919286513 -1.482026173888712
Ar -0.9905963179612647 -1.744571992522326 -1.018882443691804
Ar 0.5043615937890752 -1.194117133398031 0.1925843823921866
Ar -0.5011378395824213 1.257772973971089 0.8730476080542731
Ar -1.838016284892685 -0.03852120881102084 1.17427898119367
Ar -0.4887821894414212 1.457133745957278 -0.208376851962658
Ar 0.2536589241800897 0.4126395464366072 1.091811075511968
Ar 0.8413182272212762 0.03784801086598803 1.951112777759019
Ar -0.681770722280463 -1.134011410812015 -0.1449498906135691
Ar -1.045769305123519 -0.8555500175886679 1.192200010688721
Ar 1.519104077633729 -0.6005871838323054 2.565187209692959
Ar 0.662603158132074 2.008325173458363 -2.175859739370708
Ar 2.427650312621047 3.186992217052493 3.709360156015544
Ar -0.7995100938841871 0.2471147374260638 1.105308970461014
Ar 0.4643359881910336 -0.7597427229616929 -1.540473586957625
Ar 0.4250887198766573 1.049925854869978 -1.676859813483047
Ar 0.7867654338207244 0.1349822814242667 0.1322721214816238
Ar -1.549196445629878 1.03828800117335 1.251172320168263
Ar -0.6237831805281545 1.055504731458492 -1.231094062115234
Ar 1.526222723253733 -0.6696703708135143 0.3362237159400877
Ar -0.3932128304681814 1.648932004895498 -2.145010262823574
Ar -0.2243864104838912 -0.4972711390756857 0.5784005762502948
Ar -0.5695670115435043 -0.7683741610846573 -1.183180101530662
Ar 1.09185747047145 -0.9094876025435605 -0.6663897975098622
Ar -0.8790748774803907 0.1509406447574795 -0.643432608277698
Ar 0.96198697950019 0.105350792619939 -1.079579812828442
Ar -0.2753239078847783 0.4566513575693517 0.1645105569722969
Ar 1.352082773863436 0.3864483901998143 1.025236070884419
Ar 0.409166119923639 1.094724804086095 -2.775066639165275
Ar -0.4271664744195888 0.5700270306831113 -2.302799700511924
Ar 0.01144418794534589 -1.396034700757358 1.154702151105768
Ar -1.550462942429481 -0.7316882531379975 -0.771084721775501
Ar 0.7201065851116946 -1.075468766944007 1.96178494605065
Ar 1.714618007697924 -1.561351264419149 2.004200401204061
Ar -1.162668498386871 0.01913064111386128 -1.67769485182449
Ar 0.3612410716824501 1.385244332099478 1.548056071084944
55
algorithm=bh size=55 seed=0 index=2 energy=-242.9359878785583 step=3
Ar -0.65759263416136 -1.639088963156905 -1.528976763208526
Ar -1.195650936342231 0.3335107358034337 2.304876191213634
Ar 0.8857709071022228 1.285003966238211 0.6040741080895042
Ar 0.4072592640262845 -0.5053988738324781 -2.493801148381888
Ar 1.017580830369511 -1.519611585608734 0.2161538713759982
Ar -1.294851647342542 1.129946734684382 0.3389588184422396
Ar -0.3133541915525495 -0.5635963946108112 -1.693885199477991
Ar -1.761326105767905 -0.8391817143426274 -0.2651182019922288
Ar 0.8008219975805886 -0.5765683072021327 0.6903018827689869
Ar -0.1873899861659258 -0.4891577614368188 1.09001716396169
Ar 1.041988957189486 -1.535055990257175 -0.9160774992153095
Ar 0.1231144141557793 0.02997726328817188 -0.9165222182744398
Ar -0.333685709484365 -0.3763780822686278 2.17416493240327
Ar 0.4662391736930777 0.9385551869508251 -0.3637568184584249
Ar 0.1141391751557275 0.03446991284621288 0.1581854621614481
Ar 1.572227194732341 -0.02438371138812225 1.195592170416986
Ar -0.480122406199838 1.171135398012393 2.333142883770927
Ar -1.001799298541378 1.186630656624726 -1.938719476320752
Ar -0.4851902060717834 -1.195505464393095 -2.556859283532183
Ar 0.3677895223758834 -1.466045082453347 -1.876130939293729
Ar 0.0433942142507122 -1.10414394881277 -0.8677836037353743
Ar -0.01215410636499054 -1.080084329715147 0.1899711182765691
Ar -0.8517359067328745 1.486898782482497 1.313588856743213
Ar -1.907451346445703 -0.2100582132442416 0.6329062963745735
Ar -0.5954415490836669 0.6813524171285714 -0.3723688246431842
Ar 0.5389479196841903 0.3729647636620851 1.10625635503998
Ar 0.3851462440157123 0.4643938173563619 2.187250910770001
Ar -0.7086016196346797 -0.4248750139948455 -0.3954283322182536
Ar -1.202977979102455 -0.3956380936007886 1.476562149871099
Ar 1.723646390167614 -0.5729055210645693 2.147858493719633
Ar 0.8953926395908994 1.311760821242203 -1.341903184933901
Ar 2.128587451927178 4.051013374610075 3.539859553954583
Ar -0.8881849121077436 0.1390397850401643 0.5360610242210591
Ar 0.8407644055227688 -0.5891794821757309 -1.4672061466094
Ar 0.5845461605661818 0.3881242387611517 -1.847679722601644
Ar 1.190873889779993 0.3080275320802897 0.1915626997581953
Ar -1.552953514059677 0.6291319272006874 1.285834914013299
Ar -0.1479023053645031 1.003361094926398 -1.292727772044709
Ar 1.778186542210542 -0.6594332435973328 0.2506677773159892
Ar 0.1361300866846643 1.323026058668388 -2.279878123288371
Ar -1.034424614878345 -0.9470175359587676 0.5403664603798509
Ar -1.286964550642032 -0.7969940288285287 -1.245245619611005
Ar 0.8560342143846501 -0.5839794336961974 -0.3750846574839593
Ar -1.584406566577302 0.2443617113163872 -0.3407132386456204
Ar 1.189851306403677 0.3155626547596992 -0.9174360445442847
Ar -0.1881041327177762 1.009519258936152 0.5656221813355305
Ar -0.4748485972123735 0.4748799402616935 1.483395701745499
Ar 0.4731594972748279 0.50319690873295 -2.94896916723386
Ar -0.4047644375798753 0.3328771116717308 -2.279892076385939
Ar 0.3804165412385641 -1.443078131562333 1.178811668746685
Ar -0.8783850681476441 -1.501283690793256 -0.4293250245817848
Ar 0.693779425992506 -0.5196817374781819 1.761131147679454
Ar 1.491079633394016 -1.179468261394827 1.233509072403778
Ar -0.9403463947235631 0.2394857503675711 -1.294063560385458
Ar 0.2437427235355757 1.349584793215227 1.518868780148511
55
algorithm=bh size=55 seed=0 index=3 energy=-248.8015426276508 step=4
Ar -0.4309350034636796 -1.667296169267509 -1.718190633443515
Ar -0.2276986536116529 -0.4249587090413478 1.774234698168531
Ar 1.244717334605702 1.475192848422557 0.6279706651478434
Ar -0.8010116496954365 -0.7154732881178962 -2.262344192091702
Ar 0.7734961609712565 -1.670408035089957 0.06333992081696539
Ar -0.5698485912106485 1.655269978115309 0.2914762788097404
Ar 0.2714441523279111 -0.9792335562946347 -2.309475421927512
Ar -0.9311440902284536 -1.327721729663085 -0.7623449880138154
Ar 0.3561402417263995 -0.7985842461605686 0.8793468042262693
Ar -0.5700164425502617 -0.2327280466787345 0.7498104302008294
Ar 0.4442165413202978 -0.8437931769619661 -0.5485121257661985
Ar 0.2374858602567636 0.2222311204194476 -0.9030788340530407
Ar -0.6550659942930375 -1.239766001985582 1.176207911165764
Ar 0.5103519362922462 1.962453743729455 -0.08442749699103669
Ar 0.9575992733579151 0.9916235397151788 -0.452154400105343
Ar 1.280750424745262 0.7305168777070434 1.512654062715072
Ar -0.1005910213429952 0.6587930654466752 2.072386390081603
Ar -1.813184345376999 0.5673493309153498 -1.291061309464383
Ar 0.6446557676996766 -1.501212115659893 -1.42312272533831
Ar 1.459093745208874 -1.127005524940626 -0.7593902932198617
Ar -0.0135955719980889 -1.903194985915704 -0.6819641669389154
Ar -0.2712979488163743 -1.274259232547158 0.1615308747764163
Ar -0.5302208538820806 0.8739664610046993 1.076946984513051
Ar -2.237011393480561 -0.3286297102732021 0.4109469173402626
Ar -1.332970519174356 1.194993829759242 -0.4342512900192813
Ar 0.3670686784506326 0.2541875938991329 1.162895676859991
Ar 0.7419090861412816 -0.04044007445823091 2.165880811321225
Ar -0.2132980567849306 -0.6804428114566454 -1.35713242360062
Ar -1.527919133077344 -0.5797279766922713 1.232896955314894
Ar 1.280288651981764 -0.3671075739600645 1.280709339233532
Ar 0.664906809344791 1.725446072056387 -1.210955493894685
Ar 2.01200640056351 4.767278529723047 3.436967337479561
Ar -1.46373568241733 0.4138357670372569 0.7075401491826643
Ar 0.8742682674031538 -0.4486985178773453 -1.51644621209427
Ar 0.9519463958589551 0.6808719430325819 -1.544173917754901
Ar 1.253095348990549 0.3916033318938143 0.457370523759389
Ar -1.08660748143232 0.2529802921228614 1.75786963007076
Ar -0.1164131921408292 1.240435069942923 -0.6160112594380966
Ar 1.225339217098992 -0.694022695004726 0.2392426636899657
Ar -0.1154558931818921 1.068507364885059 -1.680901909502172
Ar -1.293971801741958 -0.8815690801322864 0.212409570267426
Ar -1.286465062994162 -0.4385197907175207 -1.293749161313858
Ar 0.3281478667880431 -0.03288647288220981 0.1255682438347126
Ar -1.526423763656173 0.07365868945929138 -0.3335151509332329
Ar 1.250001672065439 -0.02934989223297554 -0.5967010951260654
Ar 0.3051836565298435 1.002034152163416 0.3878584067089877
Ar -0.6058150969152803 0.5653811667093943 0.04497168179123149
Ar 0.07737467649677943 0.08173214925352679 -2.04875471388052
Ar -0.9947429189932472 0.3584100822485088 -2.070209631010862
Ar 0.2335091940437156 -1.867348654771317 1.016991962753345
Ar -0.5456248654772311 -0.3904072799567319 -0.3921287388860807
Ar 0.6181574977268496 -1.125996245490563 1.870686044447838
Ar 1.26439416720796 -1.451881705251196 1.034290349950105
Ar -0.7693924860035106 0.4707815539606504 -1.030761404973278
Ar 0.4029084887363575 1.383128745859061 1.390757705153641
55
algorithm=bh size=55 seed=0 index=4 energy=-249.1895624673939 step=5
Ar -1.053865084470306 -1.933048029135854 -1.328651820550462
Ar -0.8152739331049882 -0.8130229060504611 1.846747682368793
Ar 1.101710384909081 1.440786128242882 0.07271004009085738
Ar -0.4094289597195626 -1.209417240442913 -1.872375058034298
Ar 0.4543717572043843 -1.399892061942102 -0.2841708807556793
Ar -0.7070870452508423 1.430100049185499 -0.09208171839501153
Ar 0.04261898023588506 -0.1622633472648896 -2.097697466476043
Ar -0.646233515695697 -0.3557708536814378 -1.262134988945366
Ar 0.6255329824281533 -0.7806587986029017 0.5754722786601044
Ar -0.1874044058511358 -0.3300339208188244 1.063182905937406
Ar 0.07521091342105951 -0.2831523758250737 -0.2799009013873422
Ar 0.2541907108466532 0.9130944319762698 -0.3015553350722935
Ar -0.6589923621216877 -1.666902443352629 1.18647339788659
Ar 0.2139555493084452 2.010901741705367 -0.3213389243900562
Ar 1.229324462979844 0.5366100129061483 -0.6072378801990007
Ar 0.7993749213335944 0.6656515261834834 2.165965744357004
Ar 0.05205540968290346 0.6622880775412483 1.356438799379248
Ar -1.605621497007279 0.1362494850487964 -0.9770182597246327
Ar 0.3536616386412763 -0.7903283728800169 -1.194542789418039
Ar 1.272474408476269 -1.378159537477889 -0.9930965920206193
Ar 0.2004574565738475 -1.885365341479089 -1.238251241136717
Ar -0.3692576935327859 -1.089498465638034 0.3455883778334827
Ar -0.9824594564624969 1.148790737666814 0.9475929821952581
Ar -1.838095345866694 0.3237612102824238 0.9629494118171391
Ar -1.38325740043977 1.227947144565385 -0.9657109037124244
Ar 0.8600337354912518 -0.1490996326107732 1.422783583594577
Ar 0.00484221098756057 -0.1322591529692985 2.126731782350067
Ar -0.5226409367245738 -1.24557824075037 -0.6950497723680589
Ar -1.218824168985193 -0.5725111674132014 0.838103713475577
Ar 1.631529502214571 -0.4143264708821081 0.6561062587671694
Ar 0.7970039884152003 1.436579051147795 -1.077289126215517
Ar 1.696382133832928 4.958993354381422 2.919337625356997
Ar -1.456518494378095 0.6270300246922337 0.005760747215066333
Ar 1.293828310781777 -0.3105032451968157 -1.384366785150047
Ar 0.3255082639041254 0.3084875726495654 -1.175720759969873
Ar 1.755429149764505 0.6123042074014119 0.3525295374648555
Ar -0.9363764909253757 0.2487042681167645 1.58013149342371
Ar -0.2932312856612378 1.424093619685797 -1.133296499842359
Ar 1.427650730320202 -1.432791064750053 0.1978088242829024
Ar 0.2133598762815273 0.9938498048475475 -2.013363856667244
Ar -1.386915047234169 -1.356729929123622 0.05964050481606511
Ar -0.9776899872942091 -0.3686155793936101 -0.1989926623183823
Ar 0.6882709023968074 0.2817584428397366 0.429025678512867
Ar -2.012896916890317 -0.3621017418394661 0.02755154325425968
Ar 1.126718622630418 -0.4984146207213677 -0.3304843979498024
Ar 0.1252540877532867 1.430380356072178 0.6291359620959488
Ar -0.4382109137513811 0.426617294736898 0.381715269073435
Ar 1.23301149471851 0.6996473455185696 -1.74335876088682
Ar -0.7830205710849893 0.6089952658453499 -1.737077626542621
Ar 0.4058514186440108 -1.816072889483284 0.7509572805508721
Ar -1.542483419315632 -0.9584912742029816 -0.9611491119563881
Ar 0.2432899832666129 -1.12827392309894 1.613126766464765
Ar 1.283391044416613 -1.250715843699127 1.297950222026076
Ar -0.6272257921628096 0.5105794458679281 -0.6754996497487351
Ar 1.066715692069149 1.009797871619843 1.129895356581408
55
algorithm=bh size=55 seed=0 index=5 energy=-246.4745868017694 step=6
Ar -0.7460010046075376 -1.783229470311761 -0.4219440364929271
Ar -1.138963642713699 -0.7951460792735225 1.630373458713448
Ar 0.4069630613780768 1.945881797341186 -0.2181995481485652
Ar -0.64298373041516 -1.354420296326262 -1.440707327366178
Ar 0.253568714210371 -1.90554958473209 0.009792963712571472
Ar -0.535243279814021 1.387966252105432 -0.04048426056273544
Ar 0.1860416459921765 0.2371757949670682 -2.496523683345945
Ar -0.8175586498977361 -0.3915824049249884 -0.9819730665583085
Ar 1.440210025879221 -0.5841251925949063 0.7862456399050931
Ar -0.4915996245934623 -0.3565546380863826 0.876564089979213
Ar 0.03510512720474419 -1.030765364748714 -0.6056749019545503
Ar 1.146280481651379 1.224632327115891 0.1900800813297317
Ar -0.5817377900131343 -1.514188438994166 0.6921708660386954
Ar 0.2190949893032745 1.63024350383733 0.8153498795333016
Ar 0.3353096936543605 0.8452842906920336 -0.3955176055419283
Ar 0.7038336287914728 0.3414587053691407 2.173878638874848
Ar -0.1040214504820498 0.9100284428574271 1.657859919707148
Ar -1.635084694767356 0.3112072078130122 -1.289386668404423
Ar 0.8621881605908003 -1.098186575360398 -1.323105952163055
Ar 1.175112457084154 -1.876997222475518 -0.5909460779470206
Ar 0.1890112325952102 -1.989574478610675 -1.095693974186013
Ar 0.3396889850681993 -0.9365189366459284 0.4977337221799648
Ar -0.880305679376638 1.289565664063407 0.9588533706010014
Ar -1.887971456531483 0.7439087970329347 0.6725746288888478
Ar -1.184745455691086 1.29883346503379 -1.437890520487431
Ar 0.5122917214820216 -0.1855836647480132 1.239489465297183
Ar -0.3041473758521169 -0.1161977393630912 1.979065320616311
Ar 0.01714674477024445 -0.4795589856997974 -1.65910194511632
Ar -1.618355560578422 -0.3635976329801867 0.7428287527031493
Ar 1.923460813064465 -0.06598320280509422 -0.03647290520001654
Ar 0.9076530264497957 1.495693751088951 -1.092943971951129
Ar 1.13612288306329 5.568349412601308 3.325850115773651
Ar -1.570871601295824 1.022617104077931 -0.399318186389487
Ar 1.698146345387463 -0.4183673390261047 -1.052985916925294
Ar 0.6270466677168395 -0.1318455115636999 -0.8442619723925864
Ar 1.382420249147841 0.6022713596282734 -0.709834590853753
Ar -1.110813491983041 0.345624939278766 1.407533742793558
Ar -0.634871377160678 0.6145324234677054 -0.7848650599313504
Ar 1.211104597962637 -1.63655321362813 0.5162116747349168
Ar 0.2636857788196306 0.6580756213682517 -1.470321349130582
Ar -1.586788440285727 -1.138421032384338 -0.8197138431150005
Ar -0.1303820722109643 -0.1125628757601246 -0.1248365538919971
Ar 0.87083924063327 0.1306753442064008 0.2200291058708538
Ar -1.731078524421121 -0.1127170919359521 -0.3154841784008084
Ar 1.113139731328427 -0.8529923871626363 -0.2389549654712645
Ar -0.008492912432878988 0.6092821990691669 0.6386252515470006
Ar -0.9735514555109293 0.3969035405119763 0.2562792105133527
Ar 1.036322461717058 -0.05358594487509392 -1.843780734927505
Ar -0.7079189602167325 0.3390122976574137 -1.84822719800741
Ar 0.3390919899172515 -1.979782740796088 1.093879728056165
Ar -0.9386285310392097 -0.7931115818678164 -0.00153149760851928
Ar -0.08324760649458811 -1.091406199543129 1.56593328370985
Ar 0.9824232164055672 -1.193023098147939 1.533249201685782
Ar -0.1915728878414991 1.580246327196872 -1.07372321816068
Ar 0.9236335849578675 0.8126583569910132 1.173953597867238
55
algorithm=bh size=55 seed=0 index=6 energy=-250.3027237737407 step=7
Ar -1.220945573227854 -1.844840021159514 -1.320928192807649
Ar -0.5768132182727109 -0.470811952695373 1.964580126811778
Ar 1.054754088658475 1.574154584484889 0.7303897029919648
Ar -0.6078039723992604 -1.007060100440474 -1.778835406311211
Ar 0.3336786798582738 -1.619560590220055 -0.3359009225280069
Ar 0.1385042307587335 1.086921342373282 0.4354761425103364
Ar 0.3631475924768259 0.21186659619886 -1.489186949298609
Ar -0.5162299779087648 0.8668055922332325 -1.358945496370981
Ar 0.7908536357625059 -0.9733519554912863 0.4112869043661836
Ar 0.03462550339064348 -0.51999583404726 1.008391309188287
Ar 0.03253763593557553 -0.5298437548979099 -0.1804084457384548
Ar 0.05410202358834548 0.514717496208164 -0.4795418336656713
Ar -0.3972115515287007 -1.423098042261423 1.448437329354719
Ar 0.4943738919710841 1.937917134270611 -0.1668063638538627
Ar 1.949291258967786 0.4122637224494287 -0.4439469348697426
Ar 0.7727469380444435 0.693917531982699 1.326223788771232
Ar -0.8681804415068228 1.140376823004465 0.8498461373538891
Ar -1.451677491058142 0.2810217426287197 -1.431880113048265
Ar 0.3460267134123939 -0.8467102934345503 -1.173842530247776
Ar 1.267520552781108 -1.105915363833611 -0.603221803632157
Ar -0.03111439018304661 -1.883769487830227 -1.379478172251859
Ar -0.5020167002785583 -1.286125617128567 0.3703251680741962
Ar -1.530942014170085 1.394846160222648 0.03676289657226577
Ar -1.560793393645253 0.3381238688072883 0.5002791288074485
Ar -1.44990554495141 1.351189959859257 -1.061307801737808
Ar 1.677079925557846 -0.4276018953847447 0.1839398946183782
Ar 0.4847272821699503 -0.1874408503330182 1.959218847657842
Ar -0.5819248481505188 -1.234794195102853 -0.7137532905046603
Ar -1.055500331064446 -0.5418491131444347 0.9761461460732156
Ar 1.691533903344527 -1.274964061309625 0.9478231187398202
Ar 1.017794666809767 0.9671182019955734 -0.2256267989076531
Ar 1.794506169569057 4.758115699666409 2.597802465291797
Ar -1.989538258336533 0.01717106295492374 -0.4852190592396635
Ar 1.310602525999513 -0.4161991759047433 -1.537896177233679
Ar -0.5446046540743253 -0.2004204011731094 -1.03817915503601
Ar 1.616949522352704 0.5952540233494805 0.6157312150668229
Ar -0.273823165137663 0.4495936400178754 1.441866138530929
Ar -0.4863097895949274 1.470518736169983 -0.4069542514492524
Ar 1.28200900852524 -1.925006305297573 0.1513029622858161
Ar 0.4297835565975306 1.328478141883137 -1.090956705262441
Ar -1.50335857181692 -1.48712104392671 -0.2114881005771642
Ar -1.074827153639051 -0.4813627870846725 -0.1232303616473783
Ar 0.6415767407097979 0.1383704814175077 0.4073126919576013
Ar -2.005232202479684 -0.6876551843310926 0.394757398620718
Ar 0.9484234279455548 -0.07870005941870759 -0.5841826490089194
Ar -0.3742323520750762 2.064749519759683 0.5183424428115819
Ar -0.4748944103031202 0.2147797492976475 0.4156601593151932
Ar 1.314369935324787 0.6989582866608162 -1.283729736841287
Ar -0.5672739325902808 0.05054261942317703 -2.100791621785647
Ar 0.3302874286088074 -1.904228857426365 0.7445439047086417
Ar -1.494429403789156 -0.7746445510337649 -1.101459876823675
Ar 1.241382574913482 -0.299463334079446 1.186491985483572
Ar 0.7109400108651572 -1.208325366608799 1.512933610772328
Ar -1.039173982784809 0.5490447116283923 -0.4397008475475185
Ar 0.05462789567926365 1.534042775111233 1.411527956288879
55
algorithm=bh size=55 seed=0 index=7 energy=-245.0194717568204 step=8
Ar -1.351960181761898 -2.013445081184843 -1.119418197832893
Ar -1.419810636202964 0.6047078054645081 1.361798394341568
Ar 0.83274038036114 2.30121790107468 0.5034301895930745
Ar 0.5733540528350379 -1.173825100789891 -1.886511129082873
Ar 0.02952232560288403 -2.326008715593514 -0.4942561873766915
Ar -0.5749168296403004 0.673932675882769 0.4483991207629382
Ar 0.4017423185226573 -0.3676442851636052 -1.206450010125301
Ar -0.3727766966093466 0.4067434522325462 -1.344873190048661
Ar 0.7453512117950007 -0.968362925171838 0.5679680574318213
Ar 0.1825733771108393 -0.05436917439893207 0.7258846541497168
Ar 0.272386721206612 -1.216385007100128 -0.5362232727399109
Ar -0.0904869808143076 1.188247034906623 -0.4486088607745698
Ar -0.1394052774281231 -0.9900041350135385 1.252012605275972
Ar 0.008657024193561043 2.241879849039085 -0.2470336797670223
Ar 1.611562879588562 0.5765784080419942 -0.2667264771223921
Ar 0.7107212057411481 0.7521934971001539 1.252479375389979
Ar -0.7787552439026024 1.477953932574214 1.202992453076712
Ar -1.405759589126017 -0.04290450522205501 -1.191007305521596
Ar -0.6055811351159546 -0.6803248190803702 -0.8686869411090504
Ar 1.262202538341452 -1.087785862351918 -0.9395230274494279
Ar 0.7492402386327381 -2.010213125988435 -1.222652939468479
Ar -0.3412454478916073 -0.7897167054984514 0.2025491243766696
Ar -1.797129408691956 1.619197208260176 -0.4780531275512414
Ar -1.639261626050492 0.8524836185764045 0.3244652796705124
Ar -0.8007112707542267 1.833267941294907 -0.9603395029804316
Ar 1.706753768172103 -0.9145953374267711 0.08363218814018732
Ar 0.7349901203977981 -0.3589489974874406 1.581241415345999
Ar -0.3212020526167338 -1.606769541597717 -1.362438552898439
Ar -1.348387980815775 -1.100205638031991 0.4763086280860162
Ar 1.541284023627056 -1.811987706225391 0.7871401317515114
Ar 0.6347132160569172 0.6809370253065805 0.1457827413704573
Ar 1.381087873166433 4.79415380094324 2.83109581979553
Ar -1.166276436834862 -0.1316278728799815 -0.08093809437848588
Ar 1.492121729173849 -0.05885767396874397 -1.166313919328565
Ar -0.1264004483410111 0.1097860746056764 -0.3447851565450277
Ar 1.390664862567772 1.305718660701265 0.5944135195869722
Ar -0.3128007281914512 0.5169805266175622 1.521736273875427
Ar -0.8778880522193508 1.677528958723395 0.1355018941412966
Ar 1.023009918518844 -1.844773581091449 -0.1461903153902085
Ar 0.9256247719672278 1.59007887160123 -0.3651398848878054
Ar -0.7598718801536214 -1.619234209915267 -0.3094530152551975
Ar -1.624336041806304 -0.9958118820368461 -0.5969980474410684
Ar 1.314052503542205 0.02645296519656726 0.6761647386411417
Ar -1.938488534443948 -0.1578585048553381 0.6936252948364228
Ar 0.8694446369100829 -0.294925296160421 -0.2575929880022123
Ar -0.3353604909122409 2.436695104207849 0.7854335708809342
Ar -0.8769215133054225 -0.2429595360926913 0.9734799516275136
Ar 0.6903833503862127 0.639412655347723 -0.9376520671721872
Ar -0.3731010449437089 -0.5628215366949554 -1.935616230041684
Ar 0.05494670991580036 -1.781731189713613 0.4625353280601289
Ar -1.293412124379696 -1.060513158735916 -1.648404028238668
Ar 1.664189482695083 -0.8343134499380878 1.229098478016244
Ar 0.790415758506577 -1.493082545376712 1.525263709936992
Ar -1.062698619207811 0.8064258034422394 -0.5912357086581315
Ar 0.1412092726333276 1.479433329641225 0.6086889190315193
55
algorithm=bh size=55 seed=0 index=8 energy=-246.9916856960957 step=9
Ar -1.304293553512165 -1.88280899045872 -1.0275485511542
Ar -1.133590009407426 0.2302722827953182 1.960928469432198
Ar 1.26241567289697 1.688475421905481 0.728320126951248
Ar -0.9364077731992712 -1.03779081431907 -1.697502566504726
Ar 0.1405296730912673 -1.832378081826073 -0.3416068776547702
Ar 0.5585462673047737 0.8642954921463143 0.7481565273201801
Ar -0.05972980133048382 0.5192712610687655 -1.270478147015883
Ar -0.3486670779260249 1.45935238051397 -0.7588298375767252
Ar 0.676951542100531 -1.066799193889811 0.2254686782195867
Ar -0.3960091254573546 -0.4556013029327219 1.46345363337519
Ar 0.05066928250925019 -0.3823711563639726 -0.408228611353505
Ar 0.8856697369323957 0.1088840858689644 -0.8851336043591025
Ar -0.5320605454423195 -1.562922170198819 1.403751323736336
Ar 0.3823340774497161 1.700421627569067 0.04637926954815545
Ar 1.949777721608848 0.1148943063299331 -0.1050501941140853
Ar 1.577523470519103 0.5155651108233968 0.8862169859076479
Ar -1.195535114175284 1.206674644354938 1.332741632380243
Ar -1.69612565217433 -0.1726625054389323 -1.675310672463009
Ar 0.09448963869008745 -0.5473194767977064 -1.485793382707827
Ar 0.8334934374670496 -1.032587790499623 -0.8407748080509759
Ar 0.008077788644710216 -1.635345331118351 -1.421808893495371
Ar -0.3431539294009691 -1.075015572088359 0.4563224064427646
Ar -1.4485697287963 1.446565183843831 -0.5978515659923979
Ar -1.66660639439734 0.9029685302531347 0.3112070803686385
Ar -1.1199162381017 0.7818086825502596 -1.395735355219885
Ar 1.688546330234848 -0.9410534537146588 -0.09452796104461121
Ar 0.6491735051300649 -0.02095685215304982 1.334776669347237
Ar -0.6031544769575282 -1.161904471800281 -0.6597969099077481
Ar -1.30421024100923 -0.8454757108456992 0.9823083218416792
Ar 1.343651663211221 -1.688610672034245 0.8199998748891593
Ar 1.359665078484954 1.979927337700207 -0.3965530096370791
Ar 2.38550758968025 4.79038667726491 2.765607600253638
Ar -1.782995388239221 0.2534498195948274 -0.6339148370496173
Ar 1.796243092856485 -0.4368884281377898 -1.067780049694026
Ar -1.666788560592006 -0.8502727717885007 -0.7751021019693203
Ar 0.9142377024212862 -0.03997344424751108 0.1993249152678367
Ar -0.2343799284250261 0.6567762903542965 1.461657563127881
Ar 0.2240965089592037 0.6743657675425619 -0.2440717519879677
Ar 1.216622255704476 -1.921339446267528 -0.2542409060089604
Ar 0.7410700751131782 1.252348438867073 -1.00212187536352
Ar -1.318221271179719 -1.48558221417445 0.08243089092861314
Ar -1.01995676443579 -0.4047254446124292 0.0002972557565986931
Ar -0.1147360179941395 0.02198416475483026 0.545256002088493
Ar -2.002796877567369 -0.1868337066644049 0.3677581169570532
Ar 1.255212567639029 0.9480535474660782 -0.08738685713618502
Ar -0.4845233578401156 1.132583820834327 0.4971569387485923
Ar -1.089925284476061 0.2196622892517058 0.8794173915636798
Ar 1.76599615428542 0.7345915826044565 -1.03009069855552
Ar -0.6625912385929471 0.009186958088201493 -2.084804796937327