38
algorithm=bh size=38 seed=1 index=0 energy=-163.8772041978179 step=1
Ar 0.3063780283496422 -0.06736666137404114 -0.6363646708683692
Ar 1.250356484090839 -0.3144839523187249 0.7975187818987984
Ar 0.8936740176522134 -0.8611070942260848 -0.1430695346262942
Ar -0.6325141576174614 0.3138406363666067 1.017140830536275
Ar -0.415759969121948 0.7387593769844035 -0.8018125002934188
Ar -0.453872908507733 -1.783598136974012 0.8857420574794154
Ar -0.8132494715252923 -1.778143722220241 -0.1485064197036003
Ar -0.919723766434158 -0.3557297915529507 1.812729901689369
Ar 1.164298369892419 0.7898983258494647 0.6567257071526809
Ar -1.185080080621375 -1.401533901351843 1.649691481154315
Ar -0.1261656789044912 -1.172969195933231 1.754433069109766
Ar 1.114687299893044 0.3241084089794712 1.674480026230486
Ar -1.411287577739112 0.8029473093475719 0.4548262518168489
Ar -1.519795487087017 0.5690459290638845 1.567331552999014
Ar 0.3735359986866067 -1.817096416197898 0.1510794528326164
Ar -0.1942394302443649 -0.900141007662714 -0.1495971902360158
Ar -0.7847719240270138 1.367057529545449 1.235144276608031
Ar 0.3620057690297929 -0.947887134044018 0.7929375121799478
Ar -1.593691652392884 -0.2306481541956462 0.7597556570486175
Ar 0.5154672878762144 1.698614504130362 0.528284710023783
Ar -1.521540038880487 -1.406090474498207 0.6268751373900047
Ar -0.3389598169372165 1.052149322028715 0.2788836213662208
Ar 0.1663216891312657 -0.1662966541331458 1.518362046664406
Ar 0.9797685681410033 -0.9077051008119374 1.685476954671606
Ar 1.313370372399716 0.1372710367252206 -0.2098689199888884
Ar -0.4644042441030113 0.6316462342852697 2.041354833266066
Ar 0.2475636105427115 0.9005661204889643 1.233955012903203
Ar -1.146304378885605 1.439495426213588 -0.3890725215858814
Ar 0.5655516241664861 -1.906207845975783 1.291236600889948
Ar -1.490104809948969 0.3628017522279637 -0.5822179697635972
Ar 1.346807123254051 -1.416489187890269 0.6988994816462897
Ar -1.317224166867167 -0.7534639718125826 -0.2053493447474364
Ar -0.6570021551756603 0.05550282189463965 0.006430697138681982
Ar 0.5708486343402061 0.9364625388710236 -0.2824498549671501
Ar 0.3156431382898283 0.1009507255455677 0.4457731818313153
Ar -0.6945286968133491 -0.3375527540605452 -1.013944399923566
Ar 1.972581670290799 -0.7260724194422166 0.0719540838751145
Ar -0.6658179706930134 -0.7364205754660152 0.8158366416896187
38
algorithm=bh size=38 seed=1 index=1 energy=-165.7048264120308 step=2
Ar 0.456556462166518 -0.001154230705315723 -1.443335020968484
Ar 1.106717175582795 0.5310163964490791 0.9725067811831586
Ar 0.9149146261069511 -0.7245838479026288 -0.7218138255101273
Ar -0.5098128381077286 0.1197982802013525 0.1521331673660773
Ar -0.346375103599266 0.7634841917468583 -1.579368125628879
Ar -0.119058551623818 -1.670350873545124 0.4337052235687782
Ar -0.6767155794213581 -1.581900807790831 -0.5536475790852912
Ar -0.4613474762879837 0.3222887854460944 1.201545299785846
Ar 0.4288575319277584 0.1917205233613538 -0.368051763944091
Ar -0.5142627309248002 -0.5710867963582303 1.85133094371307
Ar 0.3081793717243113 -1.088408032999148 1.294583715408312
Ar 1.487111293110835 0.2318786942604934 1.960959630463538
Ar -1.374412116642592 0.4341393055885314 -0.3932381479765419
Ar -0.9284761924327541 1.054888699363155 0.4684436319664767
Ar 0.4343188235995903 -1.711792859902398 -0.5376386340042957
Ar -0.02415768481419243 -0.9948245175675571 -1.261194824618301
Ar -0.1805267835385556 1.794248454548684 0.8400327953622103
Ar -0.04401988022290695 -0.7780735755475253 -0.1880442816613445
Ar -1.431931833475575 0.03590791725357691 0.6856798412726863
Ar 0.3541158148069563 1.72472185418944 -0.1647623621212917
Ar -1.167197464281083 -0.6546310089211987 -0.197360450899275
Ar -0.3666813603835434 0.9630052328416439 -0.4915243358172638
Ar 0.3689948040370927 -0.2144230187816695 0.6515407701486495
Ar 1.283121804007141 -0.551069406282977 1.173212622329355
Ar 1.154835129747958 0.9493761636742942 -0.05693142976310326
Ar 0.3089818636633204 1.045104743686323 1.542480791652757
Ar 0.4495609556144456 -0.04448638348331701 1.715593748244875
Ar -1.219939437800899 1.269608398763585 -1.104166701222831
Ar 0.8615063596462278 -1.136713152604738 0.3191060523415208
Ar -1.349292455793666 0.2299852843296548 -1.488431628251445
Ar 1.340819323550372 -0.1477091442353383 0.1317888489730348
Ar -1.134745089262456 -0.860940107593709 -1.283416462906464
Ar -0.4938659560525565 -0.06996045446345101 -0.891051954146841
Ar 0.5906835252256222 1.040885018281865 -1.030460180125086
Ar 0.1946759394256584 0.8509858398478732 0.46918011194392
Ar -0.4811046882224739 -0.2734027768064867 -1.978671525191976
Ar 1.392361986171848 0.2673684530537718 -0.9041070001860499
Ar -0.612389567226693 -0.7449012413960925 0.7733922583047677
38
algorithm=bh size=38 seed=1 index=2 energy=-164.9315560491804 step=3
Ar 0.09783817385045575 0.2745325792580181 -1.569542090759707
Ar 0.726264619279225 -0.005292453224706399 1.023474612153622
Ar 0.8109046814265625 -1.018921532984797 -0.4502793607175172
Ar -0.4299133172154783 0.6672321276853166 -0.6829057453662835
Ar -0.1136236644147007 1.364871749312976 -1.43216348191299
Ar 0.2584790265151447 -1.638584836147964 0.316180813069082
Ar -0.3990648041648976 -1.065537787526162 -0.3864139816088074
Ar -0.3586534886394712 -0.02453735107399518 1.108975192265082
Ar 0.1858340925678457 -0.1570219616887678 -0.592139271372465
Ar 0.3400801775015829 -0.1264948344930256 2.026673905479164
Ar 0.2665917027859576 -0.9915112700628743 1.322710904907372
Ar 1.306070572103949 0.5091752351999471 1.764404688653932
Ar -1.482134605625864 0.4179201876958034 -0.5161114785510078
Ar -0.8051258237200069 0.9546342028911101 1.30491747922334
Ar 0.1789248428402168 -1.835256138089966 -0.8687460572583501
Ar 0.1901916689789385 -0.8459416325620778 -1.396462862193813
Ar -0.02076221986698943 1.546830520589431 0.7424197388471959
Ar -0.6856828595671832 -0.07298073585696045 0.04668457970109548
Ar -1.428908283582729 0.1811035301070999 0.7574951449302944
Ar -0.05554645679903342 1.602777681985357 -0.3368605451565236
Ar -1.463078495853776 -0.7416811335561717 -0.2524533547066399
Ar -0.877193684582795 1.020947531333269 0.2217473919687596
Ar 0.1996348012197509 -0.5755344892326918 0.3479544447255063
Ar 1.784303100369352 0.01660914009132805 0.8594465720263308
Ar 1.075068012628777 0.9560505161807392 0.682295186769213
Ar 0.2736063815296506 0.8386165703165319 1.494465528528528
Ar 1.297595543829395 -0.630790183977311 1.687328972035918
Ar -1.105473172959971 1.475584150103066 -0.8149171117370237
Ar 1.179448791885697 -0.9328121898156121 0.6132011000966261
Ar -0.9809331066297228 0.6252690445156047 -1.607771246244465
Ar 1.083342460642795 0.0177238488851203 -0.01408474551610273
Ar -0.7882369665111615 -1.341139390714189 -1.374809702938685
Ar -0.7979622673582701 -0.2927174137644651 -1.032587181602988
Ar 0.6564961032957946 0.8161857541639392 -0.7004242974216626
Ar 0.1426524919267405 0.5656930761228944 0.275877226093963
Ar -0.5970920248521918 -0.4237210972847639 -2.083034675177738
Ar 1.087907115775198 -0.1521296113797926 -1.154753179404185
Ar -0.7518491186087943 -0.9791514030012198 0.6702068881719714
38
algorithm=bh size=38 seed=1 index=3 energy=-164.8068855238308 step=4
Ar 0.4307096656875309 -0.0427004979830688 -1.426164985621063
Ar 1.230042515344779 0.5306050426754609 0.9249295294189309
Ar 0.8837106825002938 -0.7420092985461607 -0.6955236459687542
Ar -0.4792253248778641 0.1910955493405745 0.2239995571172024
Ar -0.3480785613246166 0.7250710115652239 -1.56737026821492
Ar 0.44910391254863 -1.726039546539108 -0.5564491195263316
Ar -0.6843333897308075 -1.587620211481783 -0.4388520915146645
Ar -0.4762268602230826 0.6655326061146075 1.222120798900633
Ar 0.4472492740949322 0.1821193514362303 -0.354532927885257
Ar -0.6188247367934555 -0.401842492425154 1.099982426720425
Ar 0.2086334945333835 -1.093364525482688 1.186270536258416
Ar 1.247918205854983 0.2939887990876426 1.998075198493203
Ar -1.343987961073529 0.4757300799964822 -0.361299381277992
Ar -0.905226163499337 1.199781917045098 0.3656243576435627
Ar 0.08400366384989198 -1.888878198086321 0.4345357784584699
Ar -0.07959324842055751 -1.003032569050208 -1.167708682967361
Ar -0.1371897970174809 1.747211714321217 0.9507343115160303
Ar -0.06216591617139206 -0.7970595211037089 -0.05784886848328278
Ar -1.432282666592954 0.2511360319006781 0.7246728262735931
Ar 0.4160443532261536 1.733360295060992 -0.194310760445116
Ar -1.160022628913114 -0.5862422188822332 -0.06796892178296476
Ar -0.3050638920787041 0.9664346595419538 -0.5001264100347592
Ar 0.4195477028962666 -0.1638754503534391 0.662689488063874
Ar 1.221640514389363 -0.5511231303380881 1.249833770408442
Ar 1.214372408773517 0.9304224650142884 -0.1118963674692183
Ar 0.4963443049178443 1.023805175283793 1.559793984250203
Ar 0.2487554036629583 -0.06392925393205932 1.710145056947171
Ar -1.174711182395364 1.291752891766119 -1.078099268564795
Ar 0.9003764639756926 -1.138342344503497 0.3330425632294117
Ar -1.354963222806321 0.2365136862861503 -1.429998325714198
Ar 1.380496841352296 -0.1748622410627909 0.1170797363008877
Ar -1.182936719677398 -0.8490971949503858 -1.141968750785973
Ar -0.4956385216589277 -0.07146101720379235 -0.8155485384093571
Ar 0.624735313227424 1.006732782517789 -1.061829535721502
Ar 0.2898538191834439 0.8896559287447162 0.4669927845428956
Ar -0.5336841657981415 -0.3244188056144534 -1.905464252569214
Ar 1.39712117989373 0.2100571625629085 -0.9336162552734254
Ar -0.8165047608579813 -1.345108632728671 0.6360546536838888
38
algorithm=bh size=38 seed=1 index=4 energy=-162.9528387352364 step=5
Ar 0.5869987520650423 0.3950932065045892 -1.213480682491396
Ar 1.205275503382227 0.3233460955714421 1.276086819630011
Ar 1.069780793902662 -0.6202082544450431 -0.9262771436538063
Ar -0.2423581925775252 0.5569574606634965 -0.2868143373224173
Ar -0.4547499341812183 0.2486069399465179 -1.497475110355488
Ar -0.3793480814721248 -1.364419088942197 0.613024988335207
Ar -0.5381346450601161 -1.293783092152754 -0.4950384176939684
Ar 0.3415729797355495 -0.229479746063794 0.9248171122244798
Ar 0.6818609510467281 0.04478633354322995 -0.131733051344671
Ar -0.5141313868621671 0.06043876860698669 1.859725173933939
Ar -0.1490067389473101 -0.9541036725865554 1.614623849329798
Ar 1.406416297609042 -0.7230042281140475 1.574455596803062
Ar -1.17115812706256 0.7706228495230645 -0.793361605625565
Ar -1.006579679554659 1.222695463701928 0.2036975307183568
Ar 0.3185957282455186 -1.39680310002158 -1.171925658610915
Ar 0.01080379567262611 -0.4152654466032997 -0.8164676867285685
Ar -0.2821771643436184 1.53250594189003 1.000457463240956
Ar -0.3875182535449017 -0.3957824897628101 0.1614362246186845
Ar -1.329918228615337 0.1772723864936884 0.1951561510003776
Ar -0.03953808397236367 1.63265413495929 -0.074150762175703
Ar -1.357942524069111 -0.9495093006909845 0.1370240723295529
Ar -0.1510088764234101 1.240699425481685 -1.11470573704906
Ar -0.4934097204728283 0.4677307021078312 0.8276187307876854
Ar 0.6787927227047142 -1.283687696832518 0.9772720944215709
Ar 1.529298197312686 0.610340771423155 0.2860573339683561
Ar 0.2598852467458483 0.776519007897292 1.606738878357553
Ar 0.5512853200440091 -0.2043475691006201 2.017560118473449
Ar -1.032955846809877 1.118218097458002 -1.829142292796166
Ar 0.4796548428698504 -1.03670700933796 -0.06184166183254908
Ar -1.52002409808648 0.08937870617529757 -1.631416333833716
Ar 1.340297454755198 -0.5072062638598636 0.494903438308885
Ar -0.6402035740550954 -0.8707631074103338 -1.564965800908888
Ar -1.051672081715698 -0.315075969852938 -0.719926792896196
Ar 0.8269731861471222 1.102878624114701 -0.4496429631346552
Ar 0.4793385626477633 0.8476135112855993 0.5509429461908618
Ar 0.3750554657135242 -0.4882845822283871 -1.837265108273336
Ar 1.584523333644705 0.3297612495747867 -0.7610674639674059
Ar -0.9845738964184322 -0.4996890589168775 1.055100088021653
38
algorithm=bh size=38 seed=1 index=5 energy=-164.3631257878962 step=6
Ar 1.007543452491285 0.1425914109259394 -1.041372095480644
Ar 1.113595480318636 1.092406743480787 0.4777965666867001
Ar 0.3524680918546007 -0.5745998862497026 -0.5736449727712318
Ar -1.032202958509401 0.6188119297964345 0.3637736653925131
Ar -0.7349220536379218 0.2456156604099138 -1.66732852629519
Ar -0.2957774132825712 -1.279814498897644 -0.08526911242746944
Ar -0.09466827417770607 -1.366116506131248 -1.166824359235562
Ar -0.5049430964847023 0.5998397622749171 1.32808865518231
Ar 0.646340113435506 1.153512818221363 -0.5382834484769778
Ar -0.2942617814929813 -0.3677278490613779 1.83025886556265
Ar -0.2659988571027925 -1.039060837305335 0.9905641036430686
Ar 1.245970286398365 0.5833210862286651 1.443060693802451
Ar -1.179083007626275 0.5398244390175917 -0.7088428645616158
Ar -0.5487343438328302 1.399675852113871 -0.2911247995072127
Ar 0.7333479650854043 -1.581755556490592 -0.418380392802458
Ar 0.1516263058289659 -0.3538377573348903 -1.600769524671533
Ar 0.3732324906665799 1.269754458242464 1.274602480082563
Ar -0.3124200400371684 -0.2217455280965174 0.2149074027090691
Ar -1.225574587147678 -1.271937049196402 0.4844282333086568
Ar 0.3196636237764743 1.850588596351715 0.2824441409998489
Ar -1.402985084291919 -0.3406576798844435 -0.04914505360639333
Ar -0.619507261197058 1.567573644445176 0.811615508514707
Ar 0.3767921551409097 0.04439268449481447 1.026495562756633
Ar 0.6170973967969315 -0.8632889652918988 0.4221217805902879
Ar 0.8025551373716922 0.1689552910658092 0.02371655001014952
Ar 0.3435801138071252 0.4841153913423558 2.056225564045504
Ar 0.7199084967550065 -0.8277236344719561 1.53854509044045
Ar -0.5991224699975877 1.276518339309505 -1.352617726537921
Ar 1.443824445739141 -0.275064075997929 0.7914881942907945
Ar -0.6738737311025107 -0.4638652742901652 -0.8221362999606101
Ar 1.418203734271984 -0.6684302153792848 -0.320269186893579
Ar -1.226298596013062 -1.365736997379676 -0.664880452443275
Ar -0.1001548325573195 0.41612283604869 -0.6735182587993349
Ar 0.3141431727685759 0.7495588111668907 -1.625362313465499
Ar 0.03352868488318431 0.8035857155032124 0.3602185587629752
Ar -0.8499592856733119 -0.8704633739106413 -1.807389078065064
Ar 1.013239344703913 -0.9854245913343529 -1.324722591272776
Ar -1.066172817929528 -0.2895151937360086 1.011529440492885
38
algorithm=bh size=38 seed=1 index=6 energy=-162.8517251690184 step=7
Ar 0.4791212241780823 0.5610217367616226 -1.210892517134856
Ar 1.36424676852624 0.5664566160843203 0.5285797041198661
Ar 1.01442540858252 -1.570265654673648 -0.9453254167836036
Ar -0.1636228031729163 -0.353666938125804 0.3045934853049839
Ar -0.1118497014317138 -0.1285833361740994 -1.837600084456554
Ar -0.5287924236549948 -1.352351736204803 0.4532074086421074
Ar -0.6325742573003144 -1.578605981410321 -0.6590979855070597
Ar -1.037717523432894 0.4598495892003258 1.64698987366599
Ar 0.8843471894776636 -0.4524329044595052 -1.043463698061637
Ar 0.08646134424199151 0.5411771657223033 1.83718133632031
Ar 0.56941967834538 0.01399900015763955 1.005832617223718
Ar 1.23418738026782 0.5679742188440301 1.64788549380673
Ar -0.7597726933305681 0.4447382203862486 -0.1452685583994373
Ar -1.270665645017803 1.033572713733727 0.6388222754949524
Ar 0.2705610698642811 -1.104147576304203 -0.3112184851737086
Ar -0.142881075805201 -0.2099811179577414 -0.7524094067806385
Ar -0.4877185221758449 1.429562974700838 1.407458956541866
Ar 0.9108296993993278 -0.3194788256944928 0.03006575357026125
Ar -1.194580188718912 -0.1267882044820819 0.7014542419310343
Ar 0.9078201873029323 1.454369892430505 -0.02364904307711772
Ar -1.038534684374879 -0.6435982055886648 -0.2517528437321573
Ar -1.078588868241859 1.411034921527693 -0.4793837940273423
Ar -0.3395958761948935 0.5313820100723979 0.8388826028854646
Ar 1.283454953758238 -1.341172057662774 0.1117191055069214
Ar 0.3143594776813946 0.5634708262197818 -0.05172750584843863
Ar 0.5376775452893081 1.135871709042262 0.9780831450003838
Ar -0.3585704850125883 -0.4463169419826805 1.372780497028385
Ar -0.6088437512200073 0.6744130937455969 -1.208643715068497
Ar 0.3712521270935354 -2.018434978130826 0.2388325894739364
Ar -1.197200952870525 0.1476251155649637 -1.971152251526717
Ar 1.508433452050498 -0.5243563479621077 0.9174674874028907
Ar -0.9300360255445911 -0.7103839789774584 -1.334540543428671
Ar -1.503433367077221 0.1382668997401372 -0.8823538023888712
Ar 0.03029960663975842 1.418315045247092 -0.7230558551719213
Ar -0.2791944531964256 1.456150985425373 0.3031293644597971
Ar 0.08411864817064427 -1.126670611722251 -1.390143371697005
Ar 1.325217320107807 0.5130673607704925 -0.5539681203916347
Ar 0.487940216796776 -1.055084697863868 0.8126810602762847
38
algorithm=bh size=38 seed=1 index=7 energy=-164.6432228157989 step=8
Ar -0.3940406327234018 -0.170034824724532 -0.9028889079825554
Ar 1.187717508341579 0.435856680211717 1.046922186208944
Ar 1.385944526542892 -0.36157583470914 -1.118640982747123
Ar -1.055175030534831 0.6087072302245609 -0.4946708855144762
Ar -0.4405849367685581 -0.5001862614920071 -1.905728964056973
Ar 0.2716555453300848 -1.44982007459123 0.6443690307088974
Ar -0.8268537272779367 -1.530338045407913 0.1676558215253571
Ar -0.08938708706671766 0.834950560690246 2.042932012822073
Ar 0.5842486635149078 -0.09754584225509288 -0.4880264311922581
Ar -0.7917786786393023 -0.02016759335919201 1.651128474552259
Ar 0.2278948598919889 -0.7340979754159116 1.546149630802456
Ar 0.752369520166646 0.113656976359816 1.997366901394736
Ar -0.6205288115014879 0.6418623572980594 -1.576723922881776
Ar -0.7307006336709336 1.012961877467707 1.168517592592302
Ar 0.1315699805117362 -1.831970322451819 -0.4876420915149944
Ar 0.3613361620863981 -0.9200962165817335 -1.181734876723814
Ar -0.3600340077475576 1.262793063934215 0.172573716136505
Ar -0.08031245257325401 -0.8485654767302158 -0.1672990909385617
Ar -1.233481263501763 0.2146665928125743 0.6262636301043465
Ar 0.5015282518328278 1.682264153842344 -0.4460969260750994
Ar -1.573970882998984 -0.8584714792280189 0.7558075496406028
Ar 0.02334674598106303 0.7681721322169066 -0.7064163494062611
Ar -0.2781614927611131 0.171492628563967 0.1296298914670619
Ar 1.506636529850738 0.01873996114313723 0.03230569489129338
Ar 0.6412456253686526 0.7498835814788547 0.184202905342931
Ar 0.3526437779230924 1.330180435967632 1.073791769043149
Ar 1.313209993520198 -0.6282832543255964 1.332561757354248
Ar -0.6013366711288445 1.598706606122298 -0.9073276784848638
Ar 0.9917532406158874 -1.079724320277537 -0.2506353037113073
Ar -1.385946445381129 -0.2072050033571048 -1.266138430591684
Ar 0.6137579537403178 -0.4046379613984641 0.5366300982933528
Ar -0.7250254931330323 -1.200635528738189 -0.9778423194177871
Ar -1.126732830300567 -0.5031076762603848 -0.1906098882246421
Ar 0.346934677845685 1.311607602688827 -1.55561416535995
Ar 0.0896892239596374 0.2897015817668754 1.120033276587004
Ar 0.4326950610838498 0.1660186357312652 -1.542729244568971
Ar 1.111907110476588 0.7728440965324309 -0.8465518829030642
Ar -0.5140338808752726 -0.6386030637492797 0.7844764028288262
38
algorithm=bh size=38 seed=1 index=8 energy=-163.9941998721264 step=9
Ar 0.1653446230760601 0.4143463133998285 -1.430231407123266
Ar 0.4542900268052462 1.198145450592977 1.291504580629285
Ar 0.3474599421074538 -0.7074949371476694 -1.276148057920871
Ar -0.5494361709519197 -0.057533210790904 0.2485183208269611
Ar -0.2025810206538813 1.446489862358984 -1.264054586053214
Ar 0.4077192691663185 -1.559881647829321 0.4149306594360939
Ar -0.6117049132278832 -1.849126920371587 -0.2206470114951314
Ar -0.5475773531371998 0.7879554284688999 1.036612177269114
Ar 0.378777006977105 0.007821036588674014 -0.4529767080389054
Ar -0.8066010606729143 -0.269382031276814 1.303801351836629
Ar 0.09721646184657558 -1.004068577317014 1.389940205599038
Ar 0.9247128835907524 0.5074729980432793 2.066153685848926
Ar -1.40939566877887 0.2948729492521507 -0.4664345795532772
Ar -1.179186605282858 1.111157337570906 0.2405198744798105
Ar 0.3745994288588794 -1.724414612299641 -0.7750854790430429
Ar -0.6286345943099523 -1.240694421434077 -1.176526966313238
Ar -0.1061622544279433 1.558998890521995 0.2696914972028437
Ar -0.09354417434555244 -0.9127357130849992 -0.2674103840011905
Ar -0.194203541904608 0.7864641740314188 2.103225916255978
Ar 1.073926769627649 1.351536518698287 0.3743539820220586
Ar -1.202472257888783 -0.8282977703930962 -0.2904681381732176
Ar -0.40206440511125 0.7698309785094328 -0.4453738457244736
Ar 1.013506554769692 -0.8654237887338371 -0.3788542055377054
Ar 1.086841265294227 -0.5405714591296792 1.524856925140306
Ar 1.318410842699467 0.3250789347224992 -0.07397836757404312
Ar 1.203002513202599 0.4087114826374858 0.9977426198022428
Ar 0.2074337131207689 0.09360802918090626 1.371407854607315
Ar -1.232968741329079 1.397478727634572 -0.8119092007969546
Ar 0.505815148602881 -0.4655198880575229 0.5190021634452179
Ar -0.9380723021690215 0.5885473721673219 -1.484343250473163
Ar 1.588610164480744 -0.5575490650931905 0.5322273076259417
Ar -1.478033637753683 -0.4491057584425744 -1.340032862729487
Ar -0.5535998852102832 -0.1967857189579922 -0.8770738623713458
Ar 0.6365539314149299 1.050359226586866 -0.6006601814737825
Ar 0.3118611825312002 0.5910509979647502 0.4037484538370569
Ar -0.5018183809866209 -0.3708532644735141 -1.933131695318874
Ar 1.192512293308575 0.02932024924442361 -1.144558299781647
Ar -0.6505370533387633 -1.119808173342462 0.6216615136344698
38
algorithm=bh size=38 seed=1 index=9 energy=-162.3075721639129 step=10
Ar 0.6697719189172203 -0.3614559041168655 -1.385321537332059
Ar 0.9649886345118626 0.7258607048565011 0.7124280903578938
Ar 1.384645450216022 -0.7907468222366105 -0.6404763906876179
Ar -0.4080001567382381 -0.4433418396487301 0.1590777895778022
Ar 0.01390626584227535 0.5480981118828232 -1.136061090780412
Ar -1.097911458673671 -1.277498504044174 0.4046093326526385
Ar -0.6196842683597168 -1.439386818886966 -0.5490647049842996
Ar -0.4077366574201687 0.1002967284011275 1.125454547168271
Ar 0.5404430564098973 -0.04634640418791414 -0.3678009074966214
Ar -0.2869310253838414 -0.2486477987727709 2.159058554348988
Ar 0.03665034227625395 -1.315100581706599 0.6194485278914407
Ar 1.403548747534202 -0.3233815538118998 1.251426223205935
Ar -1.025709294737903 0.8244466770354134 0.6197170741630538
Ar -1.335356692481329 1.398015384620451 -0.2671219695329812
Ar 0.3853119000529503 -1.1011461935858 -0.3861121914512952
Ar 0.0567775910398029 -1.282939404099168 -1.448623249526825
Ar -0.5999543259226787 1.81081618178839 0.4983538589658315
Ar -0.3269382017221091 -0.436412628850358 -0.8903857003147511
Ar -1.354231637050263 -0.2216569191564858 0.620034657788647
Ar 0.4765936015875867 1.652358771562744 0.3768577766580783
Ar -1.324818102555039 -0.5798762778313196 -0.4572702919335163
Ar -0.2496481441428599 1.400533769992845 -0.4606213579556561
Ar 0.4991623700574752 -0.2592996806687305 0.667370796582705
Ar 0.5490080594057245 0.2747847380180996 1.634142408516793
Ar 1.773518748270482 0.967817614417442 -0.02058415815298413
Ar -0.03790132272392277 1.130055650737104 1.209531721673672
Ar 0.4278841627055543 -0.8498235319918159 1.554391491902914
Ar -0.9290714540485941 1.124830161296897 -1.273535159440675
Ar 1.130921569605776 -1.097016392770424 0.4393843643582534
Ar -1.171799148216544 0.0652336019612645 -1.3762657864588
Ar 1.484761776085098 -0.07377761440253973 0.1771630008714136
Ar -1.032584684125484 -1.02004618243459 -1.488729718244022
Ar -0.8337188872009392 0.4147939169045289 -0.3956218217358008
Ar 0.7669052436448313 1.000434148803454 -0.4373220937639225
Ar -0.01217987850488358 0.6269365264715431 0.2538298596759782
Ar -0.2808508676644159 -0.2755736407749981 -1.951878185005259
Ar 1.454720077562507 0.2849339600848503 -0.8885363041433274
Ar -0.684493308042067 -0.9067719548955671 1.339052542597901
38
algorithm=bh size=38 seed=1 index=10 energy=-163.543580293571 step=11
Ar 1.189427862020176 -0.3233149977995116 -1.084923399745369
Ar 0.4876978986410108 0.8053752701481119 0.6172768735097141
Ar 0.6243820599245367 -1.613293780473261 -0.5661252068951814
Ar -1.411285757321998 -0.2591400765573643 0.6899037540803632
Ar 0.16284820912189 -0.06815628004340189 -1.486994613613133
Ar -1.0022011665089 -1.396229095745371 0.5430099853659452
Ar -0.4942650849900999 -1.446668818447242 -0.4824340243399377
Ar -0.5050027390239417 0.373420729028576 0.6021865453298886
Ar -0.05883090263858849 0.4179571627048194 -0.3966213265749025
Ar -0.4384349060719504 -0.6376444162479815 1.151160711073417
Ar 0.6778203484451258 -0.8471616740653337 1.29054230304117
Ar 1.129671271810418 -0.0997335147811341 1.985488750256432
Ar -1.179220193357057 0.2756402034973676 -0.2721521183890456
Ar -1.334071049225624 1.032269902491572 0.55875791581203
Ar 0.1501970159520175 -1.298072388488936 0.4026086394765743
Ar -0.001718727408756954 -1.162082960085098 -1.426572971616821
Ar -0.314603807548768 1.191175212134134 1.279213222555508
Ar 0.3025457306720438 -0.5924622049501704 -0.5320628240032613
Ar -0.9416993197332291 0.2875616022596561 1.573621412873718
Ar -0.3192296752088676 1.356329161837341 0.1559443122830561
Ar -1.499357681959162 -0.8700632072788579 -0.3383869142723872
Ar -0.1008788509740105 1.398383552360841 -0.9321531647465772
Ar 0.3448441846557279 -0.2377478289823576 0.4825084583408769
Ar 1.288802538422495 0.02352875945874381 0.8951456765252063
Ar 1.547723631050463 1.011837390459802 0.4727604483414731
Ar 1.05933558256825 0.9188510670710296 1.524985046264937
Ar 0.1960709543102427 0.1972477728386349 1.473476677839987
Ar -1.147954661924863 1.322552250545962 -0.5507583250245075
Ar 1.160285255056368 -0.8341979856203596 0.1110622941892506
Ar -0.7296843225910946 0.5787066881237345 -1.28639469488956
Ar 1.018168344177661 0.2534744448268076 -0.173886661187058
Ar -1.139878013928201 -1.326971286582769 -1.372486973907298
Ar -0.6974852829683503 -0.436637541250983 -0.9507137567216242
Ar 0.7642854057542214 0.7325367409810429 -1.128858812476665
Ar 0.7565967380457367 1.364147829241375 -0.2480329944107019
Ar -0.7088233763806394 -0.4913842624047496 -2.028744430411971
Ar 1.732943051245903 0.9380743504651515 -0.6328019737273424
Ar -0.5690205621099824 -0.5381077706698603 0.08145215979358857
38
algorithm=bh size=38 seed=1 index=11 energy=-163.2687716305398 step=12
Ar 0.6527802385446283 0.1595123896805085 -1.608234279867258
Ar 0.4433623218104668 -0.8585905563775204 1.647001817588652
Ar 0.5721802921513718 -0.7144359624260207 -0.9178005047652958
Ar -1.586244913488601 0.2566564608346858 0.1406486831717344
Ar 0.1437589099563899 1.085057547623793 -1.919126428433104
Ar 0.4455304178555293 -0.5549371016919561 0.141816103896195
Ar 0.01826809854472937 -1.639975463465229 -1.122953645061448
Ar -0.8454145611906138 0.224342877598206 0.9580257569375383
Ar 0.3813134279969337 0.5534909837889319 0.135963201009672
Ar -0.4318848847806793 -0.2190475434221888 1.870330780146114
Ar 1.305505994060213 0.1168311495519332 0.4781116831979977
Ar 1.163366782227824 0.009865068424003596 1.581842087225455
Ar -1.529362995332114 1.196492650461032 -0.4689696305371703
Ar -0.6283575634286248 0.803540383876475 -0.02691897459590502
Ar 0.733749751432644 -1.572853587580316 -0.2633700057655891
Ar 0.09435738862976643 -0.7742086987097389 -1.899137919546404
Ar -1.318738373267395 1.202812280901616 0.6952343229144541
Ar -0.3391423614393234 -1.300496776658711 -0.1017202031653922
Ar -1.44286801042031 -0.6775090123950379 0.6985354083626463
Ar 0.14950636266503 1.598129673713394 0.005865606585581076
Ar -1.450116138783472 -0.7638448568555175 -0.3949744630028077
Ar 0.5583126330064118 1.0918981421426 -0.885962509614427
Ar 0.2410266223922844 0.02449142660914816 1.024227727309685
Ar 1.210034039952001 -0.8830625193886602 0.8687229453085624
Ar 1.257945414707 1.154691596770625 -0.01643946710972545
Ar 0.89089508051323 0.963796428972119 1.0276770049578
Ar 0.2629616573662141 0.6582353810428786 1.897525168416041
Ar -0.5383715875181192 1.125358453646086 -1.054983833771216
Ar 0.3626805677190906 -1.559297680664348 0.7552014303262931
Ar -1.123023285406239 0.2135228496678694 -0.8410452182015976
Ar 1.472140628378435 -0.7603601494021288 -0.208061197800717
Ar -0.547727716857319 -0.7086905150818866 -1.010517122457813
Ar -0.5878740293485777 -0.2568191832878717 0.03076726447773429
Ar -0.01925684245676455 0.1880875295736152 -0.7596737628817478
Ar -0.1906380119104505 1.08237315996316 0.944727738794208
Ar -0.4738565807687717 0.1761253329515717 -1.736610093194456
Ar 1.094555033683635 0.1878824538027628 -0.5936583867477186
Ar -0.4013538071964881 -0.8290646141898442 0.9279329158934287
38
algorithm=bh size=38 seed=1 index=12 energy=-163.410675781045 step=13
Ar 0.603929723867221 -0.1460936294704175 -1.283987638617306
Ar 1.034866135693421 1.101448145962534 1.22688197605815
Ar 1.081745330047446 -0.8273474154420465 -0.4910720739367452
Ar -0.8704324552573426 1.23389542208477 -0.5173706744789197
Ar -0.2592511168451958 1.204296287294087 -1.452235176963307
Ar -0.2122324735722098 -1.577123117111209 0.08588985356421019
Ar -0.6808781936648276 -1.540086349432338 -0.9310974832261603
Ar -1.10272435741583 1.012589607432014 1.59601355709852
Ar 0.5705958557342767 0.0801815863743235 -0.2348625918375945
Ar -0.5007093629691913 0.1416905118025619 1.290909754871001
Ar 0.2716452259863685 -1.605830987348948 1.09612385775386
Ar 1.289569597453717 0.01129301818215398 1.465887719640809
Ar -1.28523757866849 0.2131001437171788 -0.3392045987139423
Ar -0.9591887598861611 0.8378353696524481 0.5175276250362809
Ar 0.4341021116880657 -1.67035006371724 -0.820537789409584
Ar -0.04112061139891671 -0.7189940147724054 -0.5830529240067575
Ar 0.5705177089318808 1.791853754014582 0.4615289402816239
Ar 0.4213493782890737 -0.7468990515576189 0.4165786537249727
Ar -1.38786628201794 -0.1711636940596485 0.6990788956825236
Ar 0.08596262995500528 1.824540327589928 -0.5749257662703986
Ar -1.046241656334053 -0.8531155007634892 -0.1300850918565699
Ar 0.0233338613553469 0.9470779755365678 0.05826676421968172
Ar -0.395680842402839 -0.05333560922264122 0.222519718354587
Ar 1.245252776416488 -1.043122462969536 1.060711720847094
Ar 1.148188299922381 0.8990355491851724 0.1409222391645493