38
algorithm=bh size=38 seed=0 index=0 energy=-132.067198640951 step=1
Ar 0.06187241130173839 -0.8727794121646241 -1.656012742564599
Ar -1.744092673026499 1.82967269413854 1.649950748542369
Ar 0.01790087413383556 0.2796492483442315 0.6400241945941381
Ar 2.696326386902253 2.003377312585353 -2.924393596770001
Ar 1.513699585925234 -0.2430057870974379 -0.06017264986545847
Ar -0.6174104590691608 1.814668769967392 0.03365113013144731
Ar -0.9248667568289649 -0.5680720976989336 -1.145621517642397
Ar -0.8566105977041738 0.8430653596851093 0.4352328796432325
Ar -0.1368344787044777 -0.801596952409046 0.543304502424496
Ar 1.074784854228312 -0.2138848772871105 1.903495916876198
Ar -0.0309021914257273 0.06487085312654864 -1.094100810242333
Ar 0.4456439187035764 -0.1824099038603925 -0.173833269596631
Ar 0.2055426491073659 0.4524791352520781 2.33501283920594
Ar -0.6491081130178379 -0.08859787186253883 -0.155428750713235
Ar 0.9305229491838242 -0.6857610406555013 -0.9708294274678542
Ar 0.8504455942265153 -0.3754356492234621 0.8289513614214646
Ar -0.764002250185171 1.730225228509441 1.154697310858952
Ar -1.995459701651673 2.257374483794726 -2.727829055164118
Ar 0.8287738595442118 -1.167213797579371 0.04948133681545712
Ar 0.7841450665442666 -0.01545613412828888 -1.833887290344157
Ar -0.1002322752564265 -1.009643585616975 -0.5675187802507358
Ar 0.7303773496133114 0.6555457078322167 1.353668679350896
Ar 0.004867581816828638 0.840871847393683 -0.3035143552772206
Ar -1.447807687977676 0.8023294106345107 1.356364476343204
Ar 0.1665541730431895 1.354627279248776 0.6692958058237188
Ar -0.8913510456022012 0.1168482712014784 2.097507934829004
Ar 0.9676064557068418 0.6732544418837577 0.2697873585535621
Ar -0.9244174627099482 -0.1129336481905731 0.9891706463473769
Ar -0.3527498348204665 0.7911967100250291 1.463322366408819
Ar 1.71330208149898 0.2535733918099743 0.9864148102427583
Ar 2.337519769896039 2.829861473724324 -2.253829572058253
Ar 2.421484098051562 3.22460689329073 3.068599842554174
Ar -0.945895242444684 1.272997225427116 2.226624277700834
Ar 0.9904125838341997 0.4621734991291258 -0.833296021022937
Ar 1.920189097441122 1.790212615469306 -2.139309643580454
Ar 0.01582960200464289 -0.2886677706453573 1.552278239268148
Ar -1.658963865702826 1.580331862621609 0.5443787544085219
Ar -2.852085421061619 1.693319429674879 -3.183891084601783
38
algorithm=bh size=38 seed=0 index=1 energy=-156.5569698238095 step=2
Ar 0.2645575692833749 -1.268110558599985 -1.478841087725318
Ar -1.012471706640538 1.308554635909073 0.5676616641733878
Ar 0.1599578042865873 -0.2444931384564101 0.4487060557483177
Ar 0.7526848563390467 0.500346798829878 -1.523099730246337
Ar 0.1542207066083037 -0.8298994752496833 -0.499931503374624
Ar -1.0024778766369 1.41291137534008 -0.5794826193874208
Ar -0.7857508892280856 -0.9644263492884345 -1.079172469104137
Ar -0.6228324442091141 -0.1426680440203965 -0.3094355358358316
Ar 0.2279263493687176 -1.379342956409317 0.4100019222811184
Ar 0.4230372768135107 -0.9680425073200893 1.400835810079143
Ar -0.09506179890992214 -0.2151338755537092 -1.411613309970423
Ar 1.098083964492362 -0.4351508606838866 -0.02335372982972955
Ar -0.09976671796072824 -0.01114443547090794 1.525455682601186
Ar -0.7808770377744064 -1.200229488600896 -0.02238329599426283
Ar 1.01015620163588 -0.5228521510578888 -1.108199150167998
Ar 1.272327519697519 -1.184709962119132 0.7191525473829855
Ar -0.2279790793686464 0.8652647369558801 -0.04355086051399481
Ar -1.142732369879501 0.1651534662239601 -1.189823984806604
Ar 1.004205985900446 -1.471828601005291 -0.4072973789746594
Ar 0.6812375750522507 -0.4409366425202779 -2.153454467691505
Ar -0.07761883392473179 -1.872508213832575 -0.58338608142501
Ar 1.024311718043353 -0.111537626424743 1.078130452870462
Ar -0.2551570518805216 0.8336689227316514 -1.150561060496878
Ar -1.771144757175098 0.5463771321811693 0.9190953108178854
Ar 0.05372532010981171 0.9359639068483654 1.002707445535018
Ar -1.252922582596824 -0.2072689187540705 1.543229743258133
Ar 0.8399955854675439 0.645041259700174 0.2997568989886072
Ar -1.489923550473903 -0.4546219530795344 0.4162154073232777
Ar -0.7449223402998432 0.2558893422260182 0.6888146715385419
Ar 1.860494112320701 0.2190742637055257 0.4061141034064105
Ar 0.6558003735450249 1.231310189720183 -0.6453009548105249
Ar 2.13615615226073 2.693807561364955 3.206540926914896
Ar -0.8880514183799586 0.841473399064551 1.591883162152032
Ar 0.3918304865977384 0.1844678164562426 -0.5541996142055432
Ar 1.447582319347374 0.4222664267014056 -0.6303832823961202
Ar -0.5843092346560369 -0.8369939149369476 0.9673897901904894
Ar -1.438952090986635 0.5250422242193133 -0.1367418110074133
Ar -1.185340096192871 1.175286215226732 -1.661479667310564
38
algorithm=bh size=38 seed=0 index=2 energy=-157.8383137011813 step=3
Ar 0.9936262145342806 -1.222350546007968 -1.473795903767698
Ar -1.149727646382152 1.365193024564466 0.3974957307693167
Ar 0.1502864974189283 -0.1628495268026938 0.6380200048777228
Ar 0.8461192680271418 0.3148158261932518 -1.291497959538664
Ar -0.5587658216299405 -0.8568439214425603 -1.223494113576292
Ar -0.7178433191647078 0.7945695995996478 -0.4641747075168542
Ar -1.277185956504886 -0.01556575510807197 -0.9772326174266237
Ar -0.4912646563983118 -0.3216318850268192 -0.2683998490330135
Ar -0.7462394222300033 -0.8179235776949035 0.6644010467104757
Ar 0.1650991226613265 -1.017200633359595 1.286669524041175
Ar -0.8410238290627137 -0.1290158864013741 -2.020248918039716
Ar 1.040380061032872 -0.3705854495296937 0.09869950457308606
Ar 0.02372199606639968 0.7189745624257531 1.274557171109078
Ar -0.7853620036838413 -1.392774167566166 -0.2889604900035946
Ar 1.533029373317139 -0.4426907304977504 -0.8753497719372233
Ar 1.109869717853144 -1.248735655729813 0.7418079762145497
Ar -0.03330814311394024 1.216398662087752 0.283289129795637
Ar -0.9398377252403817 0.9153788488035242 -1.538520576201877
Ar 1.130852304164687 -1.36137951639677 -0.3773780892865722
Ar 0.2677847378367966 -0.4928901354728447 -1.881510782404362
Ar 0.1498694803570237 -1.630171187739211 -0.8507657638068722
Ar 1.037795422453764 -0.2538721195092658 1.235598212415488
Ar -0.2174191773573627 0.1879484917349332 -1.197983083152162
Ar -1.578738411268172 -0.1211803673165436 0.9517854482588239
Ar -0.4567381251302544 1.705942850397291 1.188714771995429
Ar -0.5743802313954237 -0.1601825470986778 1.502541006618514
Ar 0.894808878917099 0.654492739862846 0.6042482275233125
Ar -1.532685857080562 -0.6056322831622701 -0.06946997230526748
Ar -0.7297184563476147 0.3713900830509165 0.5172433552381424
Ar 1.876700784199457 0.1287773660802696 0.5740997341226697
Ar 0.3297143577632888 0.3757294199250063 -0.2839172664338082
Ar 1.663709777252019 2.518703883606736 3.725131815950572
Ar -1.113888241497926 0.8273442519862938 1.409280057437911
Ar 0.4350163286339603 -0.5817543395836539 -0.7832558538893652
Ar 1.411860980476932 0.5560258932834992 -0.3719360517983014
Ar 0.187835977300316 -1.118157366235257 0.1434431662785
Ar -1.67361802867333 0.4737991140031712 -0.02442806573366654
Ar 0.1696637718948946 1.197902980076548 -0.9747060480784524
38
algorithm=bh size=38 seed=0 index=3 energy=-155.7725169807721 step=4
Ar 1.165710382587674 -0.9355221183166597 -1.66379068927789
Ar -1.515323882489858 1.220191555456321 1.133406704747277
Ar -0.5423514488498364 -0.4486535148969819 0.3020607508186887
Ar 0.7565435113638004 -0.01184456417388787 -1.273421598792501
Ar -0.8867945125481895 -0.8689900398408468 -0.6935716686511173
Ar -0.8016253224926841 1.242359155151599 -0.2893551954226052
Ar -0.7950000452183988 0.9260929694581516 -1.397883459613307
Ar -0.9131896811062774 0.2010667047000137 -0.5476350912185572
Ar -0.1053669616195792 -1.279062207616936 0.9092082376730871
Ar 0.9171520048759586 -0.9380164982282413 1.280837478728576
Ar -0.6357105354475457 0.3390047430349454 -2.434347726576808
Ar 0.5111345660173539 -0.5698421576191272 0.353913321319038
Ar 0.3125553148985461 0.8232071006284624 1.336185016310576
Ar -1.052924449126843 -1.392642694744084 0.3162855317747001
Ar 1.74657245177197 -0.2908356729336382 -0.8476246324309074
Ar 0.9026829348529204 -1.571054603301091 0.3550817345251056
Ar 0.2055246321444396 1.579410008443709 -0.07384775937640339
Ar 0.2140345432655524 0.7288932970065609 -1.860389836249082
Ar 0.9223066308134149 -0.9406757875269941 -0.5820469799749359
Ar 0.3162678785189902 -0.3634425434986451 -2.213737296387762
Ar 0.1030499510858427 -1.051149072065801 -1.314041255412358
Ar 1.069593137603647 0.1130442402072925 0.9471203080511171
Ar -0.4280458965108414 -0.1047840590152448 -1.464842932845432
Ar -1.022450059850004 -0.6358536425887042 1.226643266515342
Ar -0.4631576646165953 1.345813978491383 0.7788370558445896
Ar -1.808343408040314 0.1284512577939771 1.156051170781207
Ar 0.9812461807933909 1.080187577873566 0.4771541227299802
Ar -1.602934353720502 -0.4210982895064803 0.1554739880361142
Ar 0.02227398451133873 -0.2264553555905439 1.236540580237883
Ar 1.579795681759414 -0.6240312239020914 0.2569610446508105
Ar 0.04453747653760574 0.4685520722197379 0.3108891029256183
Ar 1.537515723497701 2.203482984809935 3.881824550921568
Ar -0.7593648209481402 0.4781748944483082 1.499708928764977
Ar 0.05014786879945107 -0.2978259542155126 -0.5419569704045278
Ar 0.977893270770579 0.2173218658735946 -0.2202036411499121
Ar -0.04125384512918652 -1.344453717716031 -0.2004360201190556
Ar -1.050373109477893 0.4836949287903312 0.4677859520243516
Ar 0.08767187072309819 0.7372843829096241 -0.7628360934775502
38
algorithm=bh size=38 seed=0 index=4 energy=-158.8481986674339 step=5
Ar 0.8913748093318747 -0.9814421294269251 -1.765231657576642
Ar -1.237050586951445 1.124893293441764 0.08748646126295816
Ar 0.7806592994421189 -0.3226738664698793 1.309874727013532
Ar 0.802732761668583 -0.01622799095251959 -1.254334049812172
Ar -0.4615478707069851 -1.079097115783429 -0.420792188596409
Ar -0.4297814778685624 1.226479729735982 -0.6849026997146023
Ar -0.7308399541051532 0.1729420796441719 -1.769763885037514
Ar -0.964236928504386 -0.2219060095037118 -0.01821442785066744
Ar -0.7686038126287867 -1.270266509074265 0.6138304687038714
Ar 0.1360962569642577 -1.221125199783576 1.297147452184233
Ar -0.1057135047338829 -0.724594068569244 -1.396368803618814
Ar 1.172113655063212 -0.777135751613611 0.3751114217522787
Ar -0.02352623301344306 0.4253031436883168 1.219096522560555
Ar -1.559044369618655 -1.116010392906014 -0.1784546457294066
Ar 1.384795324995636 -0.9428462962456019 -0.7588472808905963
Ar 0.3166818660612676 -1.445327166888243 0.2369956280925857
Ar 0.4335657143210002 1.318074040291319 0.4688569262549278
Ar -1.286171404953004 0.5085054670145907 -0.8101457256982906
Ar 0.4614092565522178 -0.5105049825889588 -0.38093841014901
Ar 0.2702453863629279 -0.09304343033750863 -2.208172704400082
Ar 0.4536343871346111 -1.5128160659176 -0.8670592779354768
Ar 1.027143228672224 0.8029891315171902 1.263383561440214
Ar -0.2695862674296763 0.1314912395297247 -0.7892188368096278
Ar -1.612336121303366 -0.5847297501707982 0.8021655831571611
Ar -0.562140904536243 1.35278887853299 0.9354530425264219
Ar -0.682412222639701 -0.4805034362181883 1.432160593320184
Ar 1.453926001583455 1.019231490192487 0.2042690385504112
Ar -1.16115269679336 -0.5495301594898941 -1.059699269651828
Ar -0.2896450528367999 0.5798797590521698 0.1762356777982997
Ar 1.722680010610605 0.0882873942586415 0.7640306893953854
Ar 0.7068391125987122 0.2409421011870354 0.3934569817584285
Ar 1.043102261558654 3.026953482926218 3.675506518087193
Ar -1.094897474414495 0.3793749409687504 0.889617840248626
Ar 0.5840696117533043 0.7806834735049826 -0.5200965022523163
Ar 1.452686518485068 0.06364819271788287 -0.3550227951463188
Ar -0.07465684483525807 -0.4520810475072098 0.5400933818151605
Ar -1.923483749815802 0.2435063944751996 0.1010924012148515
Ar 0.1430720145292241 0.8158871367678021 -1.548601756267516
38
algorithm=bh size=38 seed=0 index=5 energy=-158.7018300299873 step=6
Ar 1.320968505219583 -0.6299559699046536 -1.347513937643217
Ar -1.024351529221524 0.6060215761202621 -0.2968092411456955
Ar 0.8852380333365116 0.1086783984266965 1.47514549593676
Ar 0.4554254468449715 0.09330738690602468 -1.433913218714468
Ar -0.2557324494307213 -1.593371744815927 -1.147859978738581
Ar -0.482729349145165 1.538217648351719 -0.6013860674862391
Ar -0.3116155684408527 0.009116757819488685 -2.220424746339431
Ar -1.618631488893868 -0.01446430015655306 0.4377730738298919
Ar 0.0364440633424321 -0.781813396409848 0.1819941835344092
Ar -0.03187567164799646 -1.585088671847327 0.8772203134042611
Ar -0.4948800297995799 -0.5028969426937643 -1.279099720514746
Ar 0.8822882553811304 -0.8642221122055572 0.8813044375549444
Ar -0.1387975746115905 0.6053692347003574 1.31954279379735
Ar -0.9512889959880172 -0.5287251612265289 -0.2894945099858083
Ar 1.245774889246294 -0.9649224100085576 -0.1359780271113414
Ar -0.6684833434046715 -1.567909472437537 -0.1203987215875971
Ar 0.5096127848430687 1.8153919994317 0.04986539905585784
Ar -1.447484271089274 -0.008999822694011572 -1.117794463398803
Ar 0.41218544793685 -0.8279203242769887 -0.8069310925913481
Ar 0.3253379865082631 -0.9085880296709609 -1.894248357258296
Ar 0.4254387488743139 -1.733550279435672 -0.1746429135356155
Ar 0.7328181589875038 1.130776030920309 0.9789182970339724
Ar -0.5126528001983103 0.6274817209899212 -1.284531031384974
Ar -0.9459449970884868 -0.9257405142122841 0.75072574309048
Ar -0.2276870944588321 1.695141565709745 0.9722837246759848
Ar -1.075926226652136 -0.01135086519416024 1.434933586493247
Ar 1.205805883073159 0.9313717562407328 0.04488597298536773
Ar -1.302604116728814 -1.217944101254352 -1.044233063967716
Ar -0.08546922233587328 0.9492574290639414 0.2101798047709937
Ar 1.576646287592328 -0.0642883469968497 0.4874150548490541
Ar 0.5262706259685691 0.126946832668567 0.4717080046256703
Ar 1.284372158408041 2.90126051082601 3.784382038414941
Ar -0.5476285704993666 0.04614876355594745 0.5043945680292105
Ar -0.06585784161512366 0.08666325004220188 -0.4608399266591702
Ar 1.024628018010557 0.03032858184886277 -0.5031230467450752
Ar -0.05570981829242774 -0.5059879931111998 1.283240353383669
Ar -1.062005876860524 0.951903064121375 0.7733748890372641
Ar 0.458101542829592 0.9843579508089325 -0.7600656696952135
38
algorithm=bh size=38 seed=0 index=6 energy=-157.5487008558738 step=7
Ar 1.319108525707001 -0.2766684514508772 -1.017598534041198
Ar -1.362672293795858 1.052600964197075 -0.05460506057256944
Ar 0.7091927135091513 -0.07236682947900544 1.063688155115603
Ar 0.3581108408062051 -0.2259933612680675 -1.529357573146473
Ar -1.892727581415877e-05 -1.750745529341993 -1.160406963049337
Ar -0.3099540190233954 1.115357586521781 -0.4116483004414304
Ar -0.6620592012581252 0.0553988269664081 -1.920108125664325
Ar -1.80322429406308 0.06243098695594226 0.4207682982509806
Ar -0.5642163112844154 -1.326173608967793 -0.2807488228355934
Ar -0.2029165759543642 -1.550167746239762 0.7369839666988303
Ar -1.058698781116931 0.5332233920713121 -0.9887909237401642
Ar 0.8140776056339731 -1.098369982610482 0.6454883932771514
Ar -0.2569857790364402 0.4547003933929314 1.293230630771592
Ar -1.159624656081214 -0.3955650670659485 -0.3992787685242956
Ar 1.364277069161806 -1.183684887652294 -0.3387543349660256
Ar -1.055912223998267 -0.8323220394561531 0.5906290561043611
Ar 0.6187748115446605 1.50720825980555 0.1004044852173896
Ar -1.56721909788898 -0.3602953454054489 -1.421589549142733
Ar 0.3646735492129063 -0.8655456709169513 -0.644474317839375
Ar 0.9647451191485295 -1.236885902488931 -1.45034163124143
Ar 0.4455533766914377 -1.807332415529354 -0.1270876598482813
Ar 0.6279436509557427 1.089066361978326 1.146430194131667
Ar -0.04171432723923416 0.7961314576335584 -1.418999603685794
Ar -0.05124039677908761 -0.5405242204363279 0.3013220283595465
Ar -0.3818303260019191 1.33739922076886 0.6436264307157806
Ar -1.198328830374867 -0.1084774689240272 1.372580880157264
Ar 1.334923645006955 0.6744283682576363 0.3942880717980669
Ar -0.5529567726757104 -0.7816863206017088 -1.232966146139845
Ar 0.2522503933466268 0.5193945217060288 0.2999776989066054
Ar 1.712091836019246 -0.4101039371667788 0.6886922292826764
Ar 0.9295783217332 -0.2294532653459447 -0.02154351059942761
Ar 1.651846505637643 2.946736449193945 4.202726554741642
Ar -0.7597160112271271 0.2626527852295971 0.3524041636397736
Ar -0.1728575025229272 0.05259661614970403 -0.5973808167316714
Ar 0.7530241761979076 0.6427910135045902 -0.6591575369991949
Ar -0.2130335363599233 -0.6410383330111895 1.359832708133997
Ar -1.314831038214621 0.9186414890483943 1.043437338776686
Ar 0.4698387618593351 1.672641689977335 -0.981673104870427
38
algorithm=bh size=38 seed=0 index=7 energy=-161.8474857164302 step=8
Ar 1.498441397422385 -0.5813360109928781 -1.086690318963289
Ar -0.9093275472057442 0.009904225435812649 -0.6415013749143057
Ar 1.488096424264377 0.3149752917237876 0.6983999850615822
Ar 0.9010729251354479 0.4896407538562 -1.140368956128116
Ar -0.6322772889928787 -0.9661483031560755 -0.9594068702376577
Ar -0.9560078460496758 1.0392795766219 -0.3079406066018374
Ar 0.8217100895397308 -0.2623472706306929 -1.938179576148888
Ar -1.653561449951034 0.2174042709240676 0.1801765751224747
Ar -0.08522490071591514 -0.6251435411884937 -0.01888508254041351
Ar 0.1998118582392199 -1.491715058491007 0.536693240449438
Ar -0.1173313379347176 0.2107241470671291 -1.502898828050714
Ar 0.9167643825770755 -0.6722926793140309 0.7524053251695744
Ar -0.2060055868208174 0.6623863573725417 1.268297769040301
Ar -1.079977809347975 -0.694103358106434 0.5589456157323019
Ar 1.013853859693544 -1.16936776986702 -0.2156589721961266
Ar -0.7730868736125154 -1.538350936161564 -0.03166314059000296
Ar -0.05922551819804475 1.199907645278417 0.2789996204707177
Ar -1.100610559054278 -0.2686580946696887 -1.682383864453553
Ar 0.4052056688151353 -0.5882778742244745 -0.9727409752053755
Ar -0.138009907210881 -0.8189141949508518 -1.920953035300389
Ar 0.1427198066580294 -1.632863340941243 -0.6179108598597579
Ar 0.7811118823375172 1.138266910255574 1.024790163595649
Ar -1.003925809250178 0.8286376925121615 -1.38306102119033
Ar -1.130341143698494 0.09900777782813595 1.317851704379246
Ar -0.1516693271594359 1.73541856104354 1.253602105039498
Ar -0.2405559526293354 -0.0121700463343565 2.102924328553446
Ar 0.9384641291567659 0.9819931276513815 -0.1127658169528546
Ar -1.580870096871761 -0.8065418807477694 -0.405496082213098
Ar 0.427985412641637 0.2469994380906764 0.5321863422658015
Ar 1.895138405610269 -0.6212024516581104 0.1918191276602869
Ar 0.7346639112764403 0.1131453770826048 1.550896235929912
Ar 0.3879987243369133 1.04405775236977 2.077143733294242
Ar -0.6093559111836487 0.2464891689880577 0.3668129651543012
Ar 0.0781174931371411 0.3504068877191005 -0.454758297163858
Ar 1.049432109526054 -0.09862687313658719 -0.2355804731946681
Ar -0.1415421533570016 -0.4791799608341555 1.091762636252266
Ar -1.076376610632313 1.127929562940865 0.7962991975958804
Ar -0.03530485049124264 1.270665120643517 -0.9511625188618182
38
algorithm=bh size=38 seed=0 index=8 energy=-164.2862864702929 step=9
Ar 1.211544141207914 -0.3552432021520772 -1.372392615269059
Ar -0.9371100375193613 -0.03086273741926035 -0.9139337433773366
Ar 1.401590860107059 0.3684261612583039 0.523885811943573
Ar 1.614904838788544 0.4076507844686151 -0.6063187954948542
Ar -0.6801559268039129 -1.065968169311017 -1.177592762214532
Ar -0.968411334027143 0.9943648632337334 -0.4860131931485133
Ar 0.7144693136185487 0.6239723863247891 -1.187195212809227
Ar -1.714612630835682 0.267561072309534 -0.1748615733250008
Ar -0.2323883068906047 -0.6269017184932948 -0.2401957073983601
Ar 0.2719900937302766 -1.351718700632785 0.3628262653651358
Ar 0.1252049548200839 -0.3297077129038788 -1.227755483319296
Ar 1.041340882943137 -0.6508556773432831 0.693277854289628
Ar -0.3026608430484911 0.5218682409643882 1.221414353731763
Ar -1.733606238033749 -0.4225845005813118 0.6665572737379105
Ar 1.242246353382385 -1.332769018126631 -0.1700264914353599
Ar -0.7947934081819404 -1.035767243495411 0.62677047354041
Ar -0.2225055019701012 1.117232064041427 0.2964363180376411
Ar -0.6592647414329801 -0.260371689613871 -1.977099570901089
Ar 0.3653744047521603 -1.312463022499472 -0.8109339237959849
Ar 0.4094839395419181 0.1578708567035956 -2.146654378855273
Ar -0.5819786835027586 -1.669262598291903 -0.2652775537766106
Ar 0.6418940660956109 1.102409003064605 0.955445581444814
Ar -0.3502107203659425 0.6920294710975209 -1.490901082618744
Ar -0.9838410527058558 -0.2799124451080034 1.436073163681644
Ar -0.3423943659347758 1.602659816437168 1.275000165654648
Ar -0.09825501449318906 -0.0661554587517654 2.120219116931908
Ar 0.7919589571991867 0.970566577972325 -0.137686460592421
Ar -1.328810960967052 -0.8081585506535015 -0.2874480516956038
Ar 0.3309752660819918 0.1516485959234292 0.4586229476582228
Ar 1.885096467667877 -0.4677056911496677 -0.01581299341061859
Ar 0.783556167775789 0.1405105898028594 1.457201467170171
Ar 0.2935133192001992 0.9912976739722709 2.006013701322423
Ar -0.7676429677913503 0.06161168785646024 0.338114800457832
Ar -0.0639154739912018 0.4001524652505889 -0.4795948774017633
Ar 0.8167485344461259 -0.3128784619186146 -0.3603433434450228
Ar 0.02934668353105505 -0.5970468043383382 1.154280974982671
Ar -1.230689429251907 0.9557182385683234 0.699934387606836
Ar 0.0220083928581469 1.448782853534126 -0.764036843272517
38
algorithm=bh size=38 seed=0 index=9 energy=-164.4685434539993 step=10
Ar 1.031745855090692 -0.4050960709180293 -0.8703388925100942
Ar -1.606285801305706 0.7334680929312775 -0.1488648444444395
Ar 1.619143104569046 -0.03454428372861449 0.9305683366848311
Ar 1.316960094299749 0.6003407809700783 -0.5574523162202093
Ar -0.4027751710092322 -1.34750527039726 -1.65844301209453
Ar -0.5704373253191831 1.086594405561754 -0.525142768714109
Ar 0.825108003444185 0.4509331688036703 -1.556763022204402
Ar -1.704294280848949 -0.3497503821312226 -0.3194537372537782
Ar 0.0702907636949209 -0.6755722037307694 -0.3511897613603502
Ar 0.8323050377102689 -0.806855374370509 0.9805617082694879
Ar 0.09706270437786005 -0.3975446135866388 -1.418760599014
Ar 0.04488347136478023 -1.400164348996765 0.4824303532004202
Ar -0.5882723090678178 0.2222171812992018 1.453607642367493
Ar -1.327222072721443 -0.1216992548359313 0.7092999108883594
Ar 1.012952117098174 -1.148600238178214 -0.052965953053876
Ar -0.8971309792881795 -0.9557199622811876 0.1451354675890061
Ar 0.08137093188261753 0.7068938397303141 0.359388690392683
Ar -0.8487031002789053 -0.2830626905003515 -1.944659630871998
Ar 0.5443496811477058 -1.368334083892588 -1.060630451451887
Ar -0.281362384924591 0.6411123254933588 -1.549674742595751
Ar -0.3937785246386318 -1.64427287378886 -0.5536263311928797
Ar 0.6602575318853626 1.784817732690476 0.7252502305494604
Ar -1.213735671668116 0.3302510752823422 -1.084838867873985
Ar -0.782789365194882 -0.9458441900406942 1.247616131341149
Ar -0.3381749087934157 1.741582107718446 0.3177125247449949
Ar 0.1156959903228584 -0.5532835492531215 1.762320959226977
Ar 1.180513804081981 0.8788789147870536 0.4842700071598197
Ar -0.8497280494783918 -0.6866189564272455 -0.918587852200036
Ar 0.5928914901337045 0.2789944793620454 1.212043598029243
Ar 1.825863632028461 -0.3297428127985853 -0.1163193308720344
Ar 0.1730541369409563 0.5015423701831389 2.198417034090467
Ar -0.06079075797401625 1.188184646005608 1.320077856801207
Ar -0.6935372886009252 0.09137428163440697 -0.1468450576236132
Ar 0.2406453621753232 0.3552093741071314 -0.6426526246223171
Ar 0.8089704264253378 -0.08291748085698132 0.1688007550143152
Ar -0.1252510417501357 -0.3294026510833056 0.6601189635448882
Ar -0.9247407234430187 0.8928241019114476 0.6625926814487353
Ar 0.534945617631533 1.381312413325107 -0.3430030551692353
38
algorithm=bh size=38 seed=0 index=10 energy=-163.5027941462224 step=11
Ar 0.5873488290927559 -0.6934076439897019 -1.604910683582722
Ar -1.774650886841133 0.6492314731313067 0.3433280821691279
Ar 1.069971814155062 0.7620988150434181 1.607340364600339
Ar 1.269949308317754 0.2030087092555199 -0.1948506739301267
Ar -1.142273164880628 -1.483313046605244 -1.507822506059432
Ar 0.1879996057928003 0.4445162969793259 -0.1434405697793044
Ar 0.2847503297815308 1.037051443150732 -1.657517229341471
Ar -1.089799996143973 0.4987375312625389 -0.5877419100493567
Ar 0.4916952538415619 -0.4814593065543385 -0.5416675240523113
Ar 0.8779563613016464 -1.071789291333142 1.157570184486798
Ar -1.174984931992586 -0.4576605979150508 -1.126601740688694
Ar -1.083724567171905 -1.310431128903733 -0.3552759434684266
Ar -0.5757592261005388 -0.007134447282378436 1.427224417487701
Ar -0.8815468592242385 -0.7657080473190312 0.6456855338848662
Ar 1.180713938851292 -0.8992682940012724 0.1357526823614066
Ar -1.589026198851899 -0.3474106531128633 -0.08469750194345022
Ar -0.99561564400265 1.37888123887423 0.08727611111218944
Ar -0.4744290633635477 -0.6119181171632239 -1.963582961308675
Ar 0.7859183444921697 -1.491939905484452 -0.7673370110224156
Ar -0.2893453011149791 1.206851621481719 -0.7526829894202303
Ar 0.001947193694431954 -1.323000163960258 0.04031918459904402
Ar 0.4094776550350321 1.59208570559083 1.296077303358181
Ar -0.1832732856709638 0.126338777159134 -1.170745174511874
Ar -0.1788336355134883 -1.054019520291043 1.416772282709371
Ar 0.07452545943778889 1.442578921516542 0.2641896568266683
Ar 0.471672572786799 -0.1874297436811521 1.68429213039338
Ar 1.080020277953853 1.045046060752143 0.491990008828434
Ar -0.2348508153902647 -1.120886087021602 -1.027381160841722
Ar 0.2230213384344419 0.576683162007547 0.932527398132259
Ar 1.498432780642641 -0.6326323924171592 -0.9190383674003059
Ar -0.001323558699980817 0.7900865433531487 1.975290910929536
Ar -0.6465245058563998 1.187976049083444 1.137683853438476
Ar -0.5175972508418182 -0.3884522274381881 -0.282148746539689
Ar 0.9122887460956892 0.2775219156747728 -1.209498702398556
Ar 1.161501077910512 -0.02971417282916481 0.847923310757619
Ar 0.1780436053724863 -0.4130169473800148 0.5690930975314992
Ar -0.7277252699756059 0.3571415466399846 0.4335444277317539
Ar 0.8140496686463852 1.194755923726679 -0.5969395449996512
38
algorithm=bh size=38 seed=0 index=11 energy=-162.505264389504 step=12
Ar 0.7492474627825102 -0.524409037855318 -1.479480517029633
Ar -1.748244891418656 0.5108213377259546 0.8004104329361302
Ar 0.379162143389833 1.119308811075884 1.030211993989614
Ar 1.554813953734144 -0.2462674973838235 -0.1873337448085362
Ar -1.903615564015406 -1.039653868222819 -0.7226703016767411
Ar 0.0313393113105088 -0.554867096084497 0.1331012644576074
Ar 0.7385950315137599 0.972577994360002 -1.146873837358989
Ar -1.22235105572949 0.6587281589407683 -1.139092395417289
Ar 0.5534058139305276 0.07994050368317357 -0.5647824654555789
Ar 1.001178470776029 0.265048729953352 1.494742994974938
Ar -1.13998506986246 -0.4572835044926521 -1.272820485048458
Ar -0.9655408810825653 -0.9044021660151199 -0.1650073786352283
Ar -0.8669319010116187 -0.101398350399957 1.597209262247059
Ar -0.5393055394965833 -0.9802756990329 0.9538928294558712
Ar 0.986358478434153 -0.6041805767604115 0.7045149579661161
Ar -1.650373420836691 -0.02502928269999602 -0.3132178513565672
Ar -1.111508408184759 0.8999398225625702 -0.02596376828599737
Ar -0.09641717404740324 0.2328393794431168 -1.456541417830522
Ar 0.8148331903323519 -1.030556963394026 -0.4078248501414161
Ar -0.2727686492316686 1.100242911502045 -0.7401169116770645
Ar -0.1500663826838892 -1.625685245139747 -0.2533577322736633
Ar 0.6206573424285633 1.359948946256706 -0.09829488451502237
Ar -0.5858507763144533 0.05857951934384593 -0.5224254885899241
Ar 0.393323801504909 -1.493349595633056 0.6699166537111523
Ar -0.3613526244897316 1.641536993773978 0.3194511214857493
Ar 0.3784770627098231 -0.8488067264666609 1.607554121280424
Ar 0.9284469038223551 0.4076430323649305 0.4094933014187686
Ar -0.9445396063465121 -1.540847847901847 -1.060204311677268
Ar -0.0806965705181957 0.603428663035306 0.1930576910024427
Ar 1.702687169661287 -0.906698768820546 -1.063185096335354
Ar -0.02298741127177528 0.5922243363840931 1.930464626200544
Ar -0.700164494343144 0.8615089490592183 1.056589769097738
Ar -0.1336591812363993 -0.7965730742929594 -0.9463815112902233
Ar 1.513372728415442 0.186544134493781 -1.206007405901001
Ar 1.422733790507852 1.328911856432306 0.686558332467715
Ar 0.06690525805223965 -0.0002342561630737211 1.037371835990451
Ar -0.8911204507565847 -0.06082539770656627 0.5017660683825678
Ar 1.551942139571921 0.8615708740751142 -0.3547249017604764
38
algorithm=bh size=38 seed=0 index=12 energy=-162.8412271610639 step=13
Ar 0.710413193817902 -0.5571570143198475 -1.664548214656038
Ar -1.352954927448675 0.6475289322947949 -0.4532221328777364
Ar 1.2630702474882 0.2876628317275481 1.485863237082832
Ar 1.329714587236826 -0.6648199504832019 -0.189831039055802
Ar -0.3905123502313729 -0.5670288779700922 -2.071570588024631
Ar 0.3535527663174682 0.7915515241588651 0.03614766919142472
Ar 0.05168828367834066 0.3738939144860481 -1.655825134283293
Ar -0.7534412287823671 1.135050737709563 -1.299458375458968
Ar -0.1351600859657965 -0.5428951002083384 -1.018350437300551
Ar 1.012429096583582 -0.6128004875826133 0.8922370572831949
Ar -1.007595177447249 -0.3841946008126716 -0.3532967513120606
Ar -0.7395636894574891 -1.606021494761843 0.7721156197108175
Ar -0.5809025622418197 0.1606698145103248 1.446728672782076
Ar -1.179495068568801 -0.5755474950984553 0.725202297873193
Ar 0.5837076235393748 -1.411918467679712 0.3156790921093487
Ar -1.432002385351431 -1.351503965713972 -0.07826812817755958
Ar -0.5857358412021869 0.282043058668518 0.3675256146523838
Ar -1.023568733290458 0.02793191979819273 -1.379725700702832
Ar -0.06219895040361556 -1.490829826268794 -1.565210095846564
Ar 0.3132489937121281 1.259487318264689 -0.93694356548828
Ar -0.1128016032000148 -0.7257992704313803 0.835284456929261
Ar 0.3558733075930464 1.934382256656446 1.386236689745434
Ar -0.3146208823967331 0.407101775752644 -0.6519245777124418
Ar -0.7124847368026335 -0.9163175032204026 1.70907329534811
Ar -0.5504578148730884 1.357955660283903 -0.1761768982225804