13
algorithm=bh size=13 seed=1 index=0 energy=-39.6476856862588 step=1
Ar -1.031218327735736 0.7361996336953512 -0.2491706851749119
Ar 0.8095988494458349 -1.172837428588614 0.3358702457297571
Ar 0.6060590886544294 -0.2805146166498614 -0.307034458927982
Ar -0.8122653237496874 0.8159606827549255 0.8401057626430919
Ar -0.41995395665483 -0.08705248841659806 -0.6840976550958185
Ar -0.2101961521017803 -1.001145336238076 -0.09018286354190348
Ar -0.8235684719728539 -0.1836284420086323 0.3496685766822085
Ar -0.6097545403127133 -0.09674337339304044 1.441315628677419
Ar 1.034427495431704 0.3238405022698997 0.5199555669192912
Ar -0.5842284246039319 -1.105189333953041 0.9499786373405453
Ar 0.195697411585833 -0.3581493033220082 0.7323682136510087
Ar 0.2151081872212468 0.6315054228664381 1.222162357304023
Ar 0.001850793440852744 0.5451008959904098 0.1303767245067493
13
algorithm=bh size=13 seed=1 index=1 energy=-39.04167433287746 step=2
Ar -0.8945472892284463 1.007590599701675 -0.577393728142588
Ar 0.6157774010348216 -1.08629258040524 0.1186955649727902
Ar 0.9016855574443021 -0.2953671643163909 -0.6267359828205816
Ar -0.166870561311377 0.9426876550972725 0.2796399744202758
Ar -0.8920047710073173 0.009610819016914005 -1.112255080923353
Ar -0.1651727669403893 -0.6635557635692436 -0.5838943834159814
Ar -0.7997917209979603 0.06251911977466182 -0.009579372939802742
Ar -0.4247467923430588 0.1510874441439513 1.044150465457313
Ar 0.2611098659802205 -0.06141441632134254 0.2268426145355616
Ar -0.4297284204327889 -0.8594855402736186 0.4991464194509763
Ar 1.30530655751533 -0.2243815288441967 0.4441138509049913
Ar 0.6406719452636205 0.5794887164893376 1.007489807877262
Ar 0.04831099502304137 0.4375126395062256 -0.7102201493768648
13
algorithm=bh size=13 seed=1 index=2 energy=-43.89940492869638 step=3
Ar 0.1781141628569851 0.9262678979325496 -0.5297874892835225
Ar 0.7483523148179777 -0.7731400233558218 -0.1122072846076939
Ar 0.4705204658364094 -0.08066908105360489 -0.9708144757540913
Ar -0.7483621543886982 0.7731387437112021 0.1122008583509413
Ar -0.6276606062197685 0.1941709151529148 -0.8594763613802836
Ar -0.2752265645851169 -0.8561133028723044 -0.6013993403908998
Ar -1.028540345314121 -0.3284329878049771 0.06794437081858573
Ar -0.4705168334516819 0.08066597354189438 0.9708112422438614
Ar 1.028533300162366 0.3284442859963095 -0.06793353644833763
Ar -0.1781119212663035 -0.9262779878756519 0.5297795770621535
Ar 0.6276585444585895 -0.1941820318359815 0.8594835900269052
Ar 0.2752380751381612 0.8561248926531098 0.6013966631234726
Ar 1.561955205666421e-06 2.705810372805476e-06 2.186238908482816e-06
13
algorithm=bh size=13 seed=1 index=3 energy=-43.89940494571128 step=4
Ar 0.2464165523886251 0.8764216530812338 -0.5844139021742838
Ar 0.7564575387078195 -0.7712173444449304 0.05801676944691562
Ar 0.5941016553844184 -0.1628426815201261 -0.8893257569486237
Ar -0.7564605361622238 0.7712178625392974 -0.05801092574301523
Ar -0.5091377038469622 0.1079386437491408 -0.9484227572706087
Ar -0.193909761105756 -0.9103548636158194 -0.5513902943862584
Ar -1.02860176239664 -0.333071212755476 -0.03759860938389214
Ar -0.5940918827944175 0.1628509102267544 0.8893281554995744
Ar 1.028604007806058 0.3330744283869854 0.03761187033996917
Ar -0.2464304401029039 -0.8764243170014454 0.5844025697447087
Ar 0.5091287164797065 -0.107951423175627 0.9484233949821302
Ar 0.1939218871894295 0.9103579460438548 0.5513791221450719
Ar 1.72845284289e-06 3.984861515259632e-07 3.6374832056519e-07
13
algorithm=bh size=13 seed=1 index=4 energy=-41.04458336768717 step=5
Ar 0.07519133444763461 1.160149924558195 -0.1441644598199992
Ar 0.7764137805667012 -0.5343421610821811 0.06810163733690351
Ar 0.9409652619782755 -0.6910592956663121 -1.021781398976744
Ar -0.9512193367491578 0.7703193288373521 0.2260103777294596
Ar -0.5311757427800927 0.4377290571737413 -0.7708238236794797
Ar -0.1005917035152073 -0.5908587502260797 -0.6416797417541222
Ar -1.035486398917125 -0.3123617428706744 -0.08748104608500827
Ar -0.756873154613343 -0.08636683702303598 0.9843704107868313
Ar 0.9073001254031499 0.5416639618660796 0.3793390282266301
Ar -0.2244236240830394 -0.9143361753557411 0.4260776403109849
Ar 0.3893787740075683 -0.2247047670254524 1.081800847215724
Ar -0.07531625196723256 0.1384981486835018 0.1757574828117238
Ar 0.5858369362218557 0.3056693081305837 -0.6755269541029334
13
algorithm=bh size=13 seed=1 index=5 energy=-39.02074801419623 step=6
Ar -0.3515342612837178 1.136450890236887 -0.118567294437819
Ar 0.5122744708814853 -1.358750211491645 0.4420210679083099
Ar 0.5357633430532303 0.4201412924229877 -0.0753966012724578
Ar -0.506548146490414 0.1186343213705288 0.250641593678702
Ar -0.2795496732241439 0.2626093476538707 -0.8230260086080192
Ar -0.2915683801592439 -1.582329377553319 -0.3305276668200184
Ar -0.8893757253787876 -0.6310033982984542 -0.4741377050650751
Ar 0.1091948719277085 0.8137236917415671 0.8601673139127834
Ar 0.6648223390251931 1.494912900964809 0.1458496010874111
Ar -0.5087230014622189 -0.9349796745967809 0.5442129021303798
Ar 0.3813928924827398 -0.2864616407856688 0.7726313013950915
Ar 0.4291704753831695 1.138263676286081 -0.9078383678722154
Ar 0.1946807952448915 -0.5912118179510797 -0.2860301360369199
13
algorithm=bh size=13 seed=1 index=6 energy=-43.89940493518123 step=7
Ar 0.3483793444887401 0.7729354454051471 0.671994098887035
Ar 0.6524316666525369 -0.8519947140399726 -0.1371688416638475
Ar 0.5040709503734636 -0.07468450451851455 -0.9543127151938248
Ar -0.6524429740754462 0.8519803170117118 0.1371643587788756
Ar -0.5562179860061388 0.3281324461015105 -0.8679413128700391
Ar -0.34839255567462 -0.7729267225653081 -0.6720016244380339
Ar -1.063145323314386 -0.200224183778478 0.002588100099246936
Ar -0.5040563726624204 0.07469253725485384 0.9543155012715204
Ar 1.063148663169107 0.2002194913418038 -0.00257858646487941
Ar -0.3161611682809282 -0.9295713515026788 0.4542240442442601
Ar 0.5562268662379641 -0.3281312933705725 0.8679362135691719
Ar 0.316156095617937 0.9295740677306622 -0.4542165262694331
Ar 2.793474179878152e-06 -1.535070156913118e-06 -2.709950063390437e-06
13
algorithm=bh size=13 seed=1 index=7 energy=-39.01741762585307 step=8
Ar -0.03008984666451892 0.8140886366258222 1.130167539805406
Ar 0.9063297960507044 -0.8742871310285004 -0.7948785534696067
Ar 0.4182624608745861 -0.05342509046780157 -1.400299713194344
Ar -0.7124614953666391 0.9981243325716374 0.2259454411341385
Ar -0.2019035019868866 0.5711140354589455 -0.7004999856833214
Ar -0.1254613051499023 -0.5396697460616119 -0.5673914549410271
Ar -1.029536245219464 -0.001939028537481456 -0.1889701160614737
Ar -0.933109590291056 0.1369480500866843 0.9258978293925709
Ar 0.8006668885645484 0.1479650910554018 -0.3771809304112969
Ar -0.548303455644094 -0.8191475309155531 0.4316195778836409
Ar 0.5843967211926742 -0.7495750579097918 0.2738213012440758
Ar 0.9215480748159062 0.2329385490007863 0.7526128304023132
Ar -0.05033850117586746 0.1368648901214723 0.2891562338989368
13
algorithm=bh size=13 seed=1 index=8 energy=-43.89940495443663 step=9
Ar 0.3869274423805599 0.8100680625251264 0.6036974159001558
Ar 0.6419272395652874 -0.8623112675562769 -0.1213527398121526
Ar 0.4500191959776735 -0.1348333840537238 -0.9745159673005528
Ar -0.6419223557014827 0.8623147403463419 0.1213465912906219
Ar -0.6029384405545211 0.278324316665663 -0.8540334027245974
Ar -0.3869364901218761 -0.8100701133813658 -0.6036893968869217
Ar -1.061793024032399 -0.1937899292734683 0.07358873977536733
Ar -0.4500175592127693 0.1348340186825125 0.9745118298421438
Ar 1.061792635462899 0.1937968431868538 -0.0735847280528347
Ar -0.2924248476964713 -0.8987510130357018 0.5264085747220307
Ar 0.6029358619580578 -0.2783309036290736 0.8540344312694129
Ar 0.2924290980025972 0.8987503661486802 -0.5264103289232235
Ar 1.243972431818445e-06 -1.736625582328367e-06 -1.019099445341957e-06
13
algorithm=bh size=13 seed=1 index=9 energy=-40.33111701849352 step=10
Ar 0.09335659077473038 0.4049318707317451 0.6292589942599118
Ar 1.09996617267519 -0.473468719519784 -0.6058809437583837
Ar 0.02813731542463742 -0.4169506496886792 -0.9816217319274713
Ar -0.30080305063212 1.15659211758313 -0.0987635900556096
Ar -0.3022814059793663 0.6612790324218826 -1.128061436966244
Ar -0.693674480040825 -0.9864003639567399 -0.2807771958797383
Ar -0.6321123024686736 -0.4418965869288092 0.7371426353100168
Ar -0.9860583850136482 0.6354404003775417 0.6519806456617713
Ar 1.119335043124431 0.007350762895082838 0.4300885796090324
Ar 0.2514668282463684 -0.5701624565153944 0.08832181087595764
Ar 0.4161663574606801 -0.4993070061630408 1.174172292866508
Ar 0.4866247470428017 0.4197921218273031 -0.3945035536072652
Ar -0.5801234306142773 0.1027994769357258 -0.2213565063885241
13
algorithm=bh size=13 seed=1 index=10 energy=-39.29750707246389 step=11
Ar 0.3719424693411327 0.8703039407202455 0.8124578531161029
Ar 0.3498418060370077 -1.015710864462113 -0.2887302833890945
Ar 0.7272500290657851 -0.03267981375600258 -0.7295371009862818
Ar -0.5674829733561954 0.599815366113846 0.1645273133185733
Ar -0.2900824552747802 0.4091856373516548 -0.9220649091274175
Ar -0.04874089658945967 -0.6291754952225035 -1.258240033427812
Ar -1.216608634052944 -0.2254488512891958 0.5689773375901924
Ar -0.3380082584220266 0.0887667879008867 1.153774895848656
Ar 1.250060649240542 0.4141331385528285 0.1986166404972552
Ar -0.3194429822906159 -0.9135113553539805 0.6399530259574793
Ar 0.2744109225228496 -0.07155532117091142 0.2540901856723828
Ar 0.4069233446036867 0.9411481689585816 -0.2797339252748389
Ar -0.6000630208249961 -0.4352713383433471 -0.3140909997952
13
algorithm=bh size=13 seed=1 index=11 energy=-40.96700195255499 step=12
Ar 0.6348659009688024 0.6415372360126217 0.7182369102553677
Ar 0.1991960619711458 -0.8925012435278782 -0.1745745456205894
Ar 0.378936354629314 -0.08484521602101514 -0.9549306603094306
Ar -0.2525387455798276 1.182543055345454 0.2714052666014772
Ar -0.702969854482617 -0.3864588414403464 -0.6474260226583672
Ar -0.05411253026715136 -1.072313380916771 -1.242154302984425
Ar -1.089752180277608 0.3963707488969926 0.109867098528689
Ar -0.4174801845333528 0.3481604986653707 1.017340743659868
Ar 1.014376539718612 -0.1269707776350125 -0.02268273309923452
Ar -0.6868249470559303 -0.6012387172963247 0.4608445334725885
Ar 0.3619039490365826 -0.4421884734899194 0.839574995650159
Ar 0.6546969830041689 0.8827031735628749 -0.385946586522936
Ar -0.04029734713213176 0.1552019378439593 0.01044530302682917
13
algorithm=bh size=13 seed=1 index=12 energy=-38.75424158670324 step=13
Ar 0.288323723159695 0.1274248889600146 0.2738514532809474
Ar 0.6394210988403271 -0.8992363637237053 0.0386185460974088
Ar 0.7201020901145228 -0.08578833516052434 -0.7145694546960191
Ar -0.4834318547036713 0.9113952040144585 0.3784452623381152
Ar -0.1316224972523518 0.1556849534342859 -1.369345952624586
Ar -0.1394470261796595 -0.7900134185793318 -0.7329507999228523
Ar -1.251733474427556 0.07824151803722708 0.5054132239052691
Ar -0.3713992910278065 0.1215989702561113 1.160708644372129
Ar 1.167437709290402 0.7002383741688292 -0.05985042056655848
Ar -0.4318617699007343 -0.6886560410731086 0.3593954709827887
Ar 0.4316548537807973 -0.6307537061061375 1.087118529539899
Ar 0.1738599657685171 0.8759024720466337 -0.5462522424195201
Ar -0.6113035274624753 0.1239614837252398 -0.380582260287019
13
algorithm=bh size=13 seed=1 index=13 energy=-40.2427738081083 step=14
Ar 0.5254266864697413 0.6089585969302047 0.2629405872461144
Ar 0.1696097234089996 -0.4082570438532931 -0.03535861158545144
Ar 0.6702850133392434 0.2517365055795335 -0.7844234338066236
Ar -0.3831367927530369 1.26850657008164 0.3639087252611596
Ar -0.2155260629770614 -0.4129948732357841 -1.052946128773335
Ar 0.8148468181955242 -0.8469589879498686 -0.8044241527821098
Ar -1.291360028355609 0.6249633331687217 0.1294444200076622
Ar -0.4231586712260279 0.2066513217222891 0.6714477962330574
Ar 1.24105391166569 -0.2292939551036937 0.06105830153698161
Ar -0.394157593358306 -0.8914113062250132 0.7691868438561213
Ar 0.5487342282848051 -0.2595112961953994 0.9754950754102134
Ar -0.3440846885897209 0.4963285054587842 -0.4264122301823243
Ar -0.9185325441042483 -0.4087173703781284 -0.1299171924214602
13
algorithm=bh size=13 seed=1 index=14 energy=-38.60785619819545 step=15
Ar 0.3106075185705256 0.6637774143302327 0.1010867472813399
Ar 0.8301549446933408 -0.7015097795852548 -0.5096799008237378
Ar 1.006041134568636 0.3846108646199877 -0.7041146590621876
Ar -0.3780317317795062 1.01664371447124 -0.6990088086654725
Ar -1.092983921194759 0.1700293058964486 -0.9404849568700998
Ar -0.7864829928609504 -0.7176521016610583 -0.3110609531980615
Ar -0.838313671447544 -0.5338146259553103 0.8122794875784146
Ar -0.1551398448748415 0.3291082671955071 1.047812148470635
Ar 1.135270393448989 -0.03006206579687357 0.3362887974655653
Ar 0.1060242029191484 -0.4222458608971333 0.2688363919904745
Ar 0.6148289892351366 -0.4476248953682304 1.240689721322703
Ar -0.02191228914581593 -0.02333079594991749 -0.7375917543254777
Ar -0.7300627321323817 0.3120705587003678 0.09494773883589701
13
algorithm=bh size=13 seed=1 index=15 energy=-40.3311170170437 step=16
Ar 0.5131165756088304 0.6362395111038112 0.6856597758234655
Ar 0.5606458444100734 -0.2776341260396091 0.06865252523976736
Ar 0.6533338292155834 -0.06437552251849503 -1.00347107856195
Ar -0.4547677035672749 1.182082543044886 0.4439014765888959
Ar -1.014129505056375 0.5505310525799932 -0.3261978842956506
Ar 0.4045600933399534 -1.114431214232109 -0.6289311838259665
Ar -1.241881023518704 -0.5072782336130854 0.03982140089202665
Ar -0.415768198436883 0.08242938649499701 0.4652438209711369
Ar 1.191670681489853 0.5749436231787589 -0.2248383548580653
Ar -0.2468911405401706 -0.9949651293909629 0.2954694508964851
Ar 0.3057620053876771 -0.4120113392968871 1.126836566870211
Ar 0.09852268966693827 0.6580394914521279 -0.3548702525581871
Ar -0.3541741479994985 -0.3135700427634176 -0.5872762631821558
13
algorithm=bh size=13 seed=1 index=16 energy=-38.60785613861272 step=17
Ar 0.5618214049024894 0.5625093582798694 0.08570745369859588
Ar 0.4329143773079837 -0.5693116785100031 0.1832637066570203
Ar 0.7938457953804363 -0.1059487023235091 -0.7673433471909863
Ar -0.4489281462694594 1.01376759761266 -0.03069055296053681
Ar -1.225344927457376 0.481507505361253 -0.6199753529719
Ar -0.4269680683163222 -1.079781978153096 -0.304600366378371
Ar -1.127314474283713 -0.3303615643986137 0.1510539467411978
Ar -0.2852041750696037 0.1661649087467631 0.6621168129417734
Ar 1.438938392522615 -0.1075879212351389 0.161034279019102
Ar -0.4168496148762305 -0.9170703548144006 0.8007281382526065
Ar 0.7488251695924302 0.02894657566734391 1.050570545997212
Ar 0.2110328020934237 0.8597510405259641 -0.9293684661688154
Ar -0.2567685355266733 -0.002584786759070701 -0.4424967976368622
13
algorithm=bh size=13 seed=1 index=17 energy=-43.89940496205476 step=18
Ar 0.0006200341569871012 0.9184434832614228 0.5716950081052293
Ar 0.9415631101551717 -0.5284552443243954 -0.06758273008589553
Ar 0.501795853981798 0.02613715031027375 -0.9580671811517749
Ar -0.9415637680752593 0.5284561245421007 0.06758229995707357
Ar -0.6318224954448207 -0.02302151299413206 -0.8778625147698159
Ar -0.0006201231561479845 -0.9184434025739641 -0.5716959552583019
Ar -0.892665021647587 -0.6079947051070346 0.06219095735113601
Ar 0.07974060549514031 -0.9203676537801182 0.5629726603105473
Ar 0.8926647229353316 0.6079929996510099 -0.06218866183178088
Ar -0.5017949621248935 -0.02613675162308566 0.9580669827254227
Ar 0.6318212282268321 0.02302150567630036 0.877862998528064
Ar -0.07973818744465835 0.9203685760538808 -0.562973893232374
Ar -9.970578941774615e-07 -5.690922520467374e-07 2.93524620960702e-08
13
algorithm=bh size=13 seed=1 index=18 energy=-39.65956483053165 step=19
Ar -0.2707679122325836 0.933662366466298 0.6498368535942307
Ar 1.097314399935838 -0.4116088561724049 0.4512503963818084
Ar 0.05968295786309857 1.260760452506708 -0.3632337284193727
Ar -0.205716212655557 0.1946513042214287 -0.1877642516096365
Ar -0.1333552885644604 -0.5401049242891782 -1.028522577403407
Ar 0.1733957503409772 -0.8308086995388552 0.001259587629367842
Ar -0.9054465589805815 -0.6628431992643327 -0.2347971936217887
Ar -0.5924090650960985 -0.9594333840670398 0.7939970147055192
Ar 0.1277571702806537 0.5307889571142681 -1.194530487710316
Ar -0.9738482982071175 0.07085819528315641 0.6007608658018746
Ar 0.1050281344586244 -0.09733304243319936 0.8365428089300867
Ar 0.7252585563786448 0.619579758829643 0.2519767849431823
Ar 0.7931063664785748 -0.1081689286564824 -0.576776073221533
13
algorithm=bh size=13 seed=1 index=19 energy=-43.89940495856879 step=20
Ar -0.4639525713539755 0.7643410487812465 0.6090207010662405
Ar 0.7986244302141821 -0.5665420675866712 0.4600043509349288
Ar 0.1077325367366552 0.2201956485448231 -1.053698752680965
Ar -0.798624777681297 0.5665478315446397 -0.4599987875049832
Ar -0.6492508653735777 -0.5402368057960061 -0.6760120583500324
Ar 0.4639549224890287 -0.7643379644125675 -0.6090213047848744
Ar -1.002575796324438 -0.2039349488896673 0.3516035399763233
Ar -0.2222565172580405 -1.0264675211059 0.2595012143133419
Ar 1.002575365270604 0.2039308821397761 -0.3516055662879964
Ar -0.1077426673611826 -0.2201945265616913 1.053698875895012
Ar 0.6492527000067496 0.5402332850381717 0.6760128555866862
Ar 0.2222640147388831 1.026464767103551 -0.2595049351019739
Ar -7.741035888773091e-07 3.712002818433466e-07 -1.330616533727997e-07
13
algorithm=bh size=13 seed=1 index=20 energy=-40.18807133606653 step=21
Ar -0.6774515969567043 0.4834735486078094 0.7211177902781216
Ar 0.6457753463042858 -0.6926240277466951 0.2665102555873001
Ar -0.2802249138897071 0.08347276823040976 -1.095877807400445
Ar -0.2010619079323434 0.8450774983442616 -0.2492521019848382
Ar -0.2914288277631681 -1.287841583546465 0.1324181107808061
Ar 0.2542646308094905 -0.8532547461659953 -0.760316165287683
Ar -0.3166998316989574 -0.2133516429174303 -0.04569412046651376
Ar -0.8547124254429422 -0.8465803717898684 -0.7604455224588679
Ar 0.843515189896539 1.152362526040176 -0.02464353089737028
Ar -0.1953785694229812 -0.522454585858141 0.9910587011459591
Ar 0.01593827007107564 1.366813296431622 0.7091248409174509
Ar 0.6473649760061574 0.1483532615432235 -0.4757319133601872
Ar 0.4100996600192529 0.3365540588271159 0.5917314631462908
13
algorithm=bh size=13 seed=1 index=21 energy=-43.89940489401937 step=22
Ar -0.5154033868127539 0.7112915544176096 0.6315032551148623
Ar 0.853334513393075 -0.5033438451432017 0.4345541817131857
Ar -0.614032174699375 -0.5827215063579472 -0.6736327069484999
Ar -0.8533509058884556 0.5033244200007857 -0.4345506931570527
Ar 0.06723116933826465 0.2462472715586125 -1.051290704907544
Ar 0.5154252040528178 -0.7112618620888173 -0.6315232719003301
Ar -0.9741226192962066 -0.2953069198592716 0.3664054642786858
Ar -0.1281904407569646 -1.045990444549501 0.244647198723898
Ar 0.9741322497186594 0.2953237625392771 -0.3663748378142056
Ar -0.06724884119426434 -0.2462496333544049 1.051289805266408
Ar 0.6140275171054789 0.5827074203875819 0.6736497946870844
Ar 0.1281978879500812 1.045980239719268 -0.2446755988128518
Ar -1.729103758071357e-07 -4.572699573292464e-07 -1.886243693375723e-06
13
algorithm=bh size=13 seed=1 index=22 energy=-38.42228775825964 step=23
Ar -0.6744219488346263 0.4900548240724822 0.7511891330825492
Ar 1.162921941508343 -0.5471943268269788 0.4793074518770608
Ar -0.9562124732335681 -0.1762499753235627 -0.9158660288605052
Ar -0.4336508106702382 0.5946757765524842 -0.3268550526827557
Ar -0.1275178241794436 -0.8982087336199837 -0.7813343401987253
Ar 0.4059382222977549 -0.1166262503496575 -0.2170294842760657
Ar -1.45840233482572 0.2801489420735181 -0.02140042336651743
Ar 0.2427517256638286 -1.128281692707059 0.2440520402034815
Ar 1.331202019241369 0.4543274461124726 0.03796661542693577
Ar 0.1822000535236527 -0.2068240166074192 0.8715921268654506
Ar 0.3512133645895236 0.7922975622633821 0.4305000088039008
Ar 0.5804534933936804 0.8841448657812626 -0.66806906165775
Ar -0.6064754284745574 -0.4222644214209547 0.115947014782947
13
algorithm=bh size=13 seed=1 index=23 energy=-40.3311170216931 step=24
Ar -0.4459078990720846 0.9082518203221837 0.8817194013578907
Ar 1.154310174793777 -0.3246706680913866 -0.01025855133046826
Ar -0.4657029437161584 -0.4156115539388229 -0.8652185685685585
Ar 0.01318962433404285 1.192552911149725 -0.1248554841068063
Ar -0.518359445523751 0.7106101282531839 -1.013669490930703
Ar 0.6083823171994508 -0.787473639769144 -0.9005208471504602
Ar -0.3957646485164154 -0.224778935435025 0.9649152510538318
Ar -0.9894168792392793 -0.7354939121297588 0.1145033607636866
Ar 0.3927908184595801 0.2506417670724752 -0.5929171542305739
Ar -0.5684949329731972 0.2699792736221857 -0.006424000632349045
Ar 0.6808132285119292 -0.5898497669329199 0.9948683292866127
Ar 0.4344522513119357 0.3643029286444859 0.4971817546243508
Ar 0.09970833443017128 -0.6184603527671849 0.06067599986355142
13
algorithm=bh size=13 seed=1 index=24 energy=-41.01720051799889 step=25
Ar -0.5330604718161305 0.9295808294460232 -0.3201153485491225
Ar 0.7237199189547666 -0.6789527607285742 0.4237096688546524
Ar -0.6742783594831007 -0.144355832748036 -0.6334116519033797
Ar -0.9253807970908343 0.1491796263052703 0.4364335137391069
Ar 0.2466601179773137 0.4192860292104471 -0.9631361807228628
Ar 0.3263668471107357 -0.653501828284256 -0.6297775686968585
Ar -1.446974951720384 -0.7026250304278301 -0.05863502679153502
Ar -0.3782397279579731 -0.825850240801278 0.2271551335247278
Ar 1.110494023033353 0.08957537716794753 -0.3110516285952651
Ar -0.04448015909198057 -0.1952496486272268 1.100282846607571
Ar 0.9015558953991047 0.3854825822658942 0.7613681728217886
Ar 0.599558334370998 1.080750276088081 -0.1166192443811198
Ar 0.09405933031412349 0.1466806211335584 0.08379731409227799
13
algorithm=bh size=13 seed=1 index=25 energy=-41.01720049347867 step=26
Ar -0.6588076501122795 0.8753259076763493 0.5838481910247317
Ar 0.7880082970518012 -0.2542181520106137 0.4371760539135617
Ar -0.7277409206712238 -0.5888305208340752 -0.536606812896737
Ar -1.054577687470766 0.4889653759099486 -0.4357390487148402
Ar -0.1396233076806721 0.2042769280589966 -1.090642375212083
Ar 0.4000528245564087 -0.6329251470616251 -0.5621834411558728
Ar -1.039001164286767 -0.1851222336862126 0.4734732773662525
Ar -0.1492465150356443 -0.8703829409303033 0.3877567623168226
Ar 1.488364122816279 -0.4620345923105282 -0.4027193445051553
Ar -0.1025584285834781 0.02144732850386712 1.073917996151889
Ar 0.5006565138775776 0.8293278783573651 0.5588529267382905
Ar -0.1199447279047335 0.1512724839612963 -0.01075523609430122
Ar 0.8144186434435103 0.4228976843655126 -0.4763789489325325
13
algorithm=bh size=13 seed=1 index=26 energy=-41.04458337428155 step=27
Ar -0.7414130551268704 0.8363586776322558 0.1063597003060508
Ar 0.4371827428227562 -0.4713487177316705 0.5980546494627105
Ar -0.06114936724576705 0.0614414917958317 -0.2196209659215468
Ar -0.3050970263195264 -0.5653835497977097 -1.066095742630428
Ar 0.5615103222590071 0.206082655705692 -1.091579957483851
Ar 0.6416318444272485 -0.7363754631394126 -0.4727739737990326
Ar -1.110324672099729 -0.1747272130121677 -0.3302120883592553
Ar -0.366609384578687 -0.9661323426800918 -0.009524694661016683
Ar 1.00111043614056 0.2514255347134147 -0.04973914951880778
Ar 0.06894586024958908 -0.02626998238045979 1.549705714112291
Ar 0.2166748860953145 0.6344889459400518 0.6659193593959917
Ar 0.2905935461486308 1.072391279076397 -0.3713935022268457
Ar -0.6330561327440194 -0.1219513161399482 0.6909006512863294
13
algorithm=bh size=13 seed=1 index=27 energy=-38.43617707153172 step=28
Ar -0.3309540540627856 0.8040004951019698 0.7220456787410267
Ar 0.450376601268791 -0.8289134524798175 0.05188956785682534
Ar -0.5524004993697734 -0.9476847173920153 -0.5262422620405747
Ar -0.9497985253489399 0.7235487261324783 -0.2828465820589387
Ar -0.268031174104826 0.06063709496367743 -0.9712197282962204
Ar 0.3881759819201163 -0.8639234715476892 -1.08114262508373
Ar -0.3321082920268464 -0.08518681967660426 0.1003772676717085
Ar -0.5015822802996478 -1.074807686907394 0.5802280343796786
Ar 0.7747297652124956 0.02534883079739546 -0.5728649087404278
Ar -0.110848882082493 -0.2160917418562262 1.17148765249219
Ar 0.6489565075868685 1.323331575740032 0.5925095919594233
Ar 0.1407810728412064 0.8626893083594001 -0.28365548575889
Ar 0.6427037784658358 0.2170518587647781 0.4994337988779363
13
algorithm=bh size=13 seed=1 index=28 energy=-43.89940493229594 step=29
Ar -0.4814664577256318 0.8049934200812181 0.5390236732453833
Ar 0.7365104924782958 -0.5748763998946427 0.5453790906542207
Ar -0.6132271875940124 -0.5445272039035344 -0.7055609751456351
Ar -0.7365143788294111 0.5748839450286459 -0.5453787106333159
Ar 0.2005580362226779 0.1721990655931601 -1.049050925851778
Ar 0.4814656113833629 -0.8049979562074289 -0.539021285096239
Ar -1.034750497895252 -0.1534391221531446 0.2759271642330568
Ar -0.2819960368496591 -1.006244499833407 0.2798611434682787
Ar 1.034742440795291 0.1534351887436195 -0.2759378332059981
Ar -0.2005583827341064 -0.1721930968186131 1.049046723695897
Ar 0.6132407870300024 0.5445159589148636 0.7055557109708379
Ar 0.281997336766192 1.006251019319294 -0.2798391976878015
Ar -1.763047743170739e-06 -3.188700255480054e-07 -4.578646905126305e-06
13
algorithm=bh size=13 seed=1 index=29 energy=-41.0445833764903 step=30
Ar -0.3346445168095087 0.8696529274608557 0.157134133898226
Ar 0.5027162415041202 -0.6186537539713762 0.8584491268605897
Ar -0.856093624402064 -0.798672869262854 -0.422531362927242
Ar -0.6684393186916482 0.2712694272171661 -0.7399398351814239
Ar 0.4221036751500606 0.4923704978501636 -0.5919244555150139
Ar 0.1101014642924123 -0.5267670627637117 -0.9422589460851463
Ar -1.135840464521296 0.08378068547949238 0.2742965613053547
Ar 0.1575231323848693 -1.233187671193593 -0.06119786847592112
Ar 0.9313011726997419 -0.4145114691555215 -0.1696195914622969
Ar -0.293154472389152 0.2017114808314455 1.064832079293857
Ar 0.659242121018477 0.4435898447269072 0.5114721001953562
Ar 0.6155072365260051 1.424075322772909 -0.01410369576923233
Ar -0.1103226467620144 -0.1946573599918819 0.07539175386289332
13
algorithm=bh size=13 seed=1 index=30 energy=-39.26503056240871 step=31
Ar -0.6059724805067873 1.326069322259905 -0.3464423984761872
Ar 1.12364436258602 -0.7241677437400418 0.176816045805515
Ar -1.017478717404283 -0.5266748787634454 -0.3882170443990737
Ar -1.255682761642308 0.4854217468890795 0.06763684757352363
Ar 0.7915973349270997 0.05234323585964518 -0.5683169978932734
Ar 0.878203079566796 -1.015387522164943 -0.8773926432900993
Ar -0.5807300837938668 -0.2434497522200776 0.5907415383174954
Ar 0.06756744879835425 -0.7383306085935804 -0.1736013738063563
Ar 0.4615269529746641 0.1097488754429331 0.4805309999981184
Ar 0.2761447080906034 -0.8995854205221078 0.9013634953003321
Ar -0.3494478364774291 0.8433543291354175 0.6174348733052889
Ar 0.4763794709913978 1.050466333505112 -0.1186857016107282
Ar -0.2657514781102602 0.2801920829121038 -0.3618676408245562
13
algorithm=bh size=13 seed=1 index=31 energy=-40.11389754389496 step=32
Ar -0.2620968924513802 1.071501521219594 0.9190098712857689
Ar 0.3125365314668782 -0.4478310062975693 0.1447649297791885
Ar -0.1282376416872519 -1.219264146949099 -0.5046221052716972
Ar -1.086821744244628 0.3795676232105883 -0.6575915037068556
Ar -0.1191718429859032 -0.17456061616366 -0.8663730060437743
Ar 0.8636735965351067 -0.7152764680530601 -0.7610905111510891
Ar -1.163473290107449 0.5080573072544289 0.4743439398155456
Ar -0.7740281230640501 -0.4427225456619155 0.0120039159301536
Ar 1.39684280595165 -0.2872690448472721 0.1664040631536306
Ar -0.3049348241585904 -0.03204592702304481 0.9441407224645773
Ar 0.6735052990285229 0.4654592119864636 0.644213155969266
Ar -0.1942326940910915 0.5295871755787358 -0.03161233404176337
Ar 0.7864388198081913 0.3647969157458046 -0.4835911381829506
13
algorithm=bh size=13 seed=1 index=32 energy=-41.01720053814394 step=33
Ar -0.5112661373978155 0.8314070326060821 0.5459975432522578
Ar 0.6310687000445895 -0.6536430654293874 0.6521088635960391
Ar -0.8072085599464465 -0.6569744237507387 -0.5047447867827397
Ar -0.8454238536796527 0.4734017082867576 -0.4747853717179289
Ar 0.02393441119617709 -0.05039170365335273 -0.9628522855676108
Ar 0.2698914780518639 -0.9765551840171793 -0.3711792192824218
Ar -1.156995590206116 -0.1262355632928455 0.4318765994381555
Ar -0.4509075939284848 -1.044178528847003 0.4974613638206866
Ar 1.276883602870407 0.9790197167002057 -0.0442590698850391
Ar -0.1218061039893554 -0.08484286307284582 0.1238977881860316
Ar 0.5866569404970666 0.5004901748479269 0.6887683370385831
Ar 0.2065447691282074 0.8541174857108104 -0.323288425436524
Ar 0.8986279373595399 -0.04561478608842389 -0.2590013366594638
13
algorithm=bh size=13 seed=1 index=33 energy=-39.19648180506179 step=34
Ar -0.1422092925937203 1.045913047411691 0.1055605376417331
Ar 0.8187280226529486 -0.5042734098827717 0.3322052816123218
Ar -0.8306439096779367 -0.5676822569702159 -0.4597557134546478
Ar -1.340449631351947 0.1828905350817161 -1.10864847285481
Ar -0.2923175692668906 0.3781495105339909 -0.7923182290641132
Ar 0.2735261951472007 -0.5638813036565489 -0.6339729612051087
Ar -1.11514024037734 0.4667822926232023 -0.05054822187155573
Ar -0.1214246545394091 -1.123097292819999 0.2535853361400802
Ar 1.570780621694337 0.3144709723439786 0.3916576733679303
Ar 0.1142516608309303 -0.497436618776606 1.184568097932003
Ar 0.559674682142252 0.4896267399560608 0.8267918000218549
Ar 0.6919989302080637 0.4139724657881966 -0.2857041170608716
Ar -0.1867748148684908 -0.0354346816326937 0.2365789887951839
13
algorithm=bh size=13 seed=1 index=34 energy=-38.83042312551648 step=35
Ar -0.03108929796228907 1.187894964659187 0.5502514292505943
Ar 0.1030151381481276 0.2042909245751547 0.1089744908040868
Ar -0.5216722502632615 -0.8839124909324153 -1.109055212605201
Ar -0.6690124563461419 0.8357326955300788 -0.3297303065522156
Ar -0.05863492294387417 0.1297361877217035 -0.9642903278696299