75
algorithm=bh size=75 seed=0 index=0 energy=-250.5923423463099 step=1
Ar 2.244658488397325 -2.233655215600468 -0.3713240088229979
Ar -3.129594258380257 2.275095079810439 2.763758016265572
Ar -0.6436814626870473 1.416019112858521 1.201607533064394
Ar 3.095652539781217 2.226071787187276 -3.163611315058072
Ar 2.56973737599133 -2.136702301224788 0.6568251641623218
Ar -2.462871769732168 2.450013818252696 0.3895961680149454
Ar -2.290626515152043 0.1278590758489546 -3.968184079834983
Ar -1.669722708358681 1.173500032080457 1.636651522979196
Ar 1.032018052047169 -0.9323629314907225 1.947358617489145
Ar 3.581541527040296 2.245134582663978 2.119957321773472
Ar 1.389863588946141 -1.58677804126026 -0.5948848914980236
Ar 1.744342199941877 -0.4719743234865426 -0.4845655333065392
Ar -1.478567027566845 2.85238210486244 2.552257614694302
Ar -1.945368807096423 1.138151168870586 -2.159350708501481
Ar 2.804762008815871 -0.4803346038727001 -0.1028243231654717
Ar 1.463438135687334 -2.03119081348242 0.513414968974232
Ar -3.126102784312168 2.436995316190542 1.659113598931571
Ar -2.427950796608332 1.671358482818191 -3.839989114459874
Ar 0.4858706288309921 -1.88662067366298 0.07384239229957594
Ar 1.985987219651995 -2.018013104894812 -1.444701178554864
Ar -1.999739749031081 -0.1803832489150572 -2.916596120795157
Ar 1.094020335483952 -0.9663005182945904 0.2358217256369449
Ar -1.488053585509112 3.005369815585814 0.5178213605985955
Ar -2.201814663875724 2.004505255072851 2.225203864154184
Ar -0.592894263873366 2.527876699312607 0.9844517192655491
Ar 1.375827234635882 -0.3891282645687541 2.818964237989758
Ar 1.361411154607386 -1.958757385208728 1.853502666512012
Ar 0.7071631414367654 0.09548990381134138 2.070391326116218
Ar -1.214563086391326 2.145897242882064 1.788013214523722
Ar 2.457230661993061 -1.884618467489046 1.684791631381634
Ar 2.492560941730734 3.16385297875722 -3.244154203612571
Ar 3.158053518528622 3.090486223267283 2.724664437245489
Ar -2.519680326182484 3.095513062264159 2.309498800966141
Ar 1.634550793472496 -0.9516699974879079 -1.484967119229567
Ar 2.681914142939808 2.703665138242303 -2.243174924501186
Ar 0.0233742814529424 -0.7114559311978308 1.624525137313214
Ar -2.519272709594052 1.67230737582929 1.176284332725888
Ar -3.069827725221043 0.8064081598538938 -3.543149530251639
Ar 0.9251674376608416 -0.3210495908457764 1.068371875235576
Ar -2.77896869234984 1.569354678879701 -2.781442964924868
Ar 0.297161166494314 -0.754814750315682 2.717769611050996
Ar 2.117452796925391 -1.276221785577651 0.1733045875521359
Ar 3.071812680852193 -2.060089120829542 -1.121836417571792
Ar -2.082833956248263 2.681296283268075 1.388302774567163
Ar 1.542336380739541 0.151309481301596 -1.384578057291479
Ar -1.193784672575324 3.274785387402251 1.562205621546354
Ar 1.734735855728341 -1.192679885851547 1.179517693808288
Ar 1.657917327360939 2.671540798092391 -2.686785547610354
Ar -1.741330154515919 1.915190703097627 -2.968947972054448
Ar 0.6629006834721123 -1.455680999195332 1.086623540349895
Ar -3.056396954273149 -0.2754035032134968 -3.270341989482476
Ar 2.804160867451459 -1.042523419298203 0.9606668452066334
Ar 1.84773899804862 -2.735847987117553 1.256511080307402
Ar -2.788334617391304 -0.5759754077219145 -2.227364379347196
Ar -0.3794181000317357 2.766209058592107 2.101489625273908
Ar 1.126727425549771 -1.510440232554133 2.85724828348307
Ar 2.563407918854526 -0.256526201413835 -1.217927860756734
Ar 2.663417389559942 -1.218803143826133 -1.875563004760691
Ar 3.239869157981991 3.184412736672524 1.609124145239855
Ar 4.166399470025138 3.195291569097174 2.242795233366365
Ar 2.441058195827704 -1.242070189351243 -0.8246889517387813
Ar 2.260783317189716 1.732420113991361 -2.605629010087807
Ar -1.532541615102976 1.925752373155027 0.7659839424047532
Ar 1.951996497668989 -0.2893219521531114 0.6091201341460095
Ar 0.2995210494339947 -1.725698092947779 2.09612426880097
Ar 0.7212600773707497 -2.536240702462161 1.160009504480298
Ar 2.123837049325123 -0.3009333993830551 -2.23737498679988
Ar -2.001811930697536 0.8723334930210004 -3.220540431589886
Ar 1.80366295339654 -0.2011925800988534 1.728965242510318
Ar -3.1015675336833 1.38777319675132 2.072794547193783
Ar -2.786541045306465 0.4974795385676429 -2.513562180525605
Ar 3.154773139262344 -1.557174618262914 -0.06656437395440314
Ar 2.030941210259399 -1.121509619485397 2.302777086526224
Ar 2.071672255914366 2.193988752013153 -3.607238514783011
Ar -3.582842904701569 -3.611757486583297 3.111121747258919
75
algorithm=bh size=75 seed=0 index=1 energy=-309.9920951622208 step=2
Ar 2.316809112045575 -1.082084178784271 -0.08085048161653002
Ar -1.351845278647528 0.7786691199026673 2.296077674536988
Ar -0.8215351917790669 0.05264590581290793 0.5327679420215774
Ar 2.301384946576968 0.1474877274666972 -1.754466179749007
Ar 1.404366279843949 -1.712421705545916 0.04377071852676006
Ar -1.662311394937712 0.6605642317661322 0.08594050343764054
Ar -2.470384553285864 0.5417531981687034 -4.118269360078808
Ar -0.6922249256850324 0.1197108993653219 1.726616822495214
Ar 0.9583077431137923 -0.4118314822178798 1.317453153075044
Ar 0.9476817389720876 0.9867309936285031 0.6653083344265882
Ar 0.5713540393901799 -1.275752868684163 -0.5502777201904691
Ar 1.179255375332209 0.507726354971808 -0.2984924470368789
Ar -1.024663440914845 1.830164254072227 2.371829926562184
Ar -2.414293048631932 0.2287002684097096 -2.217554471244935
Ar 1.624650081932232 0.103037694831126 0.6369799740958501
Ar 0.6438641671255281 -1.118022950650621 0.5450359541540376
Ar -1.71419051546279 1.677946138035385 0.5608411890465921
Ar -3.088661551556955 1.337556601480073 -3.645974522982073
Ar -0.1517661299258418 -1.756876794408381 0.1440885580616185
Ar 1.616027288226913 -1.277021047683506 -0.9445003043398902
Ar -2.548144991640522 -0.897206289248947 -2.463097240337025
Ar -0.1943906601320375 -0.6569200402921661 -0.02023240020094048
Ar 0.09118806921896506 1.705380187493609 0.8713854952127877
Ar -1.824742094926969 1.54736727019595 1.650905382713467
Ar 0.0113109494949541 0.5735530949878254 1.015627545249363
Ar 1.34251815633361 0.5570288951733483 1.606312422364822
Ar 0.9846327753679904 -1.472700820758429 1.524425084624409
Ar 0.3629746245581292 0.1665047699509209 1.986809808760125
Ar -0.6329755279705752 1.213362610637447 1.570442730066429
Ar 2.008061858642283 -1.337405358637571 1.858049303820122
Ar 2.670908088951021 1.165100131635249 -1.870641384264861
Ar 0.4981155146856036 1.21979815784538 1.752226116844915
Ar -0.9620109879216047 2.151398508190847 1.199466844365661
Ar 0.4768254255301416 -0.1943249306315744 -0.7257398601548848
Ar 1.944232267664779 0.8548218709516897 -0.9927424827951103
Ar -0.843306518957448 -0.9672463977707429 1.761493536109856
Ar -2.472100956666108 0.9589868557464851 0.8539579525065072
Ar -3.393045753985783 0.2648565129423419 -3.553789901645555
Ar -0.06133304017029363 0.5971836921973704 -0.1319363833872166
Ar -2.685522648890579 1.854701957051536 -2.734837157474638
Ar 0.2172649845451738 -0.9053742262893877 2.05748479965076
Ar 1.332940274808964 -0.6067722194323071 -0.1305843771613357
Ar 2.531814961823927 -0.6636856481297475 -1.064708783876732
Ar -1.467402732518386 0.6537650737614278 1.16585571700271
Ar 0.8436317105687233 0.6506729630658079 -1.330108755765003
Ar -0.08722344549759269 2.129127956533792 1.887355373829182
Ar -0.08873571132081481 -0.5103235210092654 1.092289466695139
Ar 1.596397773286387 1.04486791406189 -2.025085565540742
Ar -2.208221293692084 0.9171754686192168 -3.095088093792496
Ar -0.9195496719767028 -1.087009835314577 0.6623038953526189
Ar -3.231876121859251 -0.8628195759555752 -3.40704496024558
Ar 1.723594550220387 -0.9880499232720068 0.823230069974452
Ar 1.774952645178248 -2.064209262769695 1.02673790542383
Ar -3.390149438342346 -0.1947538995786259 -2.544607280218511
Ar -0.2640299323334577 0.9098244111262956 2.524314570333323
Ar 0.2799885272252182 -2.01394686145863 2.171780246318752
Ar 1.519728261035129 -0.181372076367136 -1.099651517892143
Ar 0.7967170450553588 -0.8435833744132997 -1.568140827606197
Ar 1.996431623977702 1.036289915322388 0.1747381929277831
Ar 2.3847417188033 0.6756535929610219 1.157966345990407
Ar 2.209015491237947 0.04241383771944444 -0.2857408896189426
Ar 1.25197951413428 0.01346983059078915 -2.155906570372327
Ar -0.7618603724013521 1.167853241101542 0.4899481531861814
Ar 0.5901558543705442 -0.0508172799994764 0.3879270300987305
Ar -0.08808099527796069 -1.589948142193542 1.228424749369023
Ar 0.6946764686101803 -2.202326097355856 0.7452365258143352
Ar 1.871339190374978 -0.8613074175386312 -1.933397795304394
Ar -2.420875352647566 -0.1428558654549003 -3.249549294990613
Ar 2.035917018889128 -0.2793522889987797 1.603271363757883
Ar -2.321797198069365 0.5190755696081231 1.853695777618791
Ar -3.216484419152718 0.8811764690437791 -2.641103805957648
Ar 2.626714517853092 -0.326285050269978 0.6694585678792878
Ar 1.252300647417804 -0.6153362334597786 2.321104998473916
Ar 2.125677604712513 0.4368251883049093 -2.784809486899399
Ar -4.134718226112763 -3.730981524865895 2.797989221956379
75
algorithm=bh size=75 seed=0 index=2 energy=-353.2121942333196 step=3
Ar 2.29656766094808 -1.128938051191246 -0.213044619804947
Ar -1.185578139097251 -0.08247939777876585 0.8227052338973038
Ar -1.461154123522759 -0.0489905808017372 -0.2469060336274415
Ar 1.089955700435368 -0.9286634650580385 -2.246368686254745
Ar 0.4235350556269524 -2.057126127403204 0.2852427421356755
Ar -1.648714441075276 1.069936992697941 -0.5143655403410705
Ar -1.511397714949859 0.3409576023357653 -2.267876480365872
Ar -1.001263931644292 0.9498840134646026 1.137302427880691
Ar 0.80302054767742 -0.09168510019382872 0.9472794801432057
Ar 0.7753227965028974 1.207880290760786 0.497424151491123
Ar 1.170842948766004 -1.384982855115135 -0.3004137065996154
Ar 0.9819845481818489 1.255404979816256 -0.5921062839425828
Ar -1.188133381246294 1.241534348258109 2.157851477467115
Ar -0.7771954319052914 0.4752651789721903 -0.8862473769307867
Ar 1.213491679216918 0.3609053127441618 0.05163981944932394
Ar 1.680502877200139 -1.714662622591072 0.5751170381249288
Ar -1.319934564978099 1.689127196138745 0.3572045078194017
Ar -2.803489065157505 -0.2290859507651736 -1.274396493061251
Ar 0.1095817213928881 -1.371811759927305 -0.5706369743203679
Ar 1.84863544562869 -1.205181859024291 -1.261709859483781
Ar -1.288153043840731 -1.423374477146226 -1.531506264030736
Ar -0.1820174538915049 -1.104119960476607 -1.643295544165061
Ar 0.3968082168031562 1.849826030302507 1.335211960814512
Ar -1.877787339536261 1.547069742511764 1.312699951037089
Ar -0.05945639274015031 0.5121017424839615 0.8646207901787661
Ar 0.8671340674218512 0.8513457052552627 1.508596818283056
Ar -1.502143286281515 -0.9952473996235309 0.2735749794446017
Ar 0.2693314419859907 0.06091073582594825 1.918019755611049
Ar -0.2449893560837224 1.529863850029686 0.497344160696879
Ar 0.6025219556997659 -0.9501965167957453 1.786016570700384
Ar 2.2292431065214 0.6088262695279794 -1.900925345730069
Ar -0.1696735842812987 1.049457658831038 1.802941905255261
Ar -0.7845574169159607 1.971069240514804 1.349289063606679
Ar 0.5840458692013555 -0.4774622160991271 -0.111805820103967
Ar 1.843419960477437 0.6147059815232311 -0.8546539025249014
Ar -1.079829656359556 -1.074418283836393 1.298906722141229
Ar -1.885929605849382 0.7179196517264967 0.5107822168257622
Ar -1.823728194066587 0.2741940684699976 -1.232183781161703
Ar -0.08285158502346615 -0.2962815588126467 -0.9467279180299836
Ar -1.213433414700478 1.191205679968641 -1.546464028515721
Ar -0.1720146690022209 -0.5345142920308453 1.103214867754427
Ar 1.577853543124986 -0.4218056785898497 -0.5675176654171031
Ar 2.522666641390515 -0.2617374950926393 -1.047377727318099
Ar -0.8561458453849875 0.7271375736146 0.1375158377433792
Ar 0.1281464271047427 0.9867628825084465 -1.245889399225301
Ar -0.2624492255717365 2.001284636115376 2.311420358284047
Ar -0.4333548865087368 -0.24811556301882 0.07913154753249527
Ar 1.147612900179605 0.8699799132385779 -1.716023859997927
Ar -0.472952883786756 0.4561612997062669 -1.959255316760523
Ar -0.8826235398261257 -0.9501474486453968 -0.6193064202600357
Ar -1.992837571152023 -0.6125986369044473 -1.941891820834691
Ar 1.615824716952502 -0.5956371879738367 0.4755040795541058
Ar 0.9465066172777072 -1.965634973704336 1.362856036817776
Ar -1.937064886600083 -0.7878783766158306 -0.8561257618664563
Ar -0.7975571827455782 0.1142228153862507 1.808427958441256
Ar -0.1051187923753603 -1.648299302575794 1.314161263406366
Ar 0.8276019275819795 0.2253567406628302 -0.9311121763526217
Ar 0.8085993847895314 -0.8536338778711139 -1.192031524938627
Ar 1.86862063748527 1.203579773415954 0.1153090185727952
Ar 1.578841687615125 1.587351310148646 1.129266960595981
Ar 2.307113115163323 0.1342137773765842 0.02601653774912288
Ar 0.4655489399416313 -0.07846353621608727 -1.894166219830805
Ar -0.5913172713131527 1.502885343918397 -0.5668154677903162
Ar 0.1500661199411348 0.6229812296807052 -0.2060987483374764
Ar 0.6927949761615391 -1.131032660308004 0.7157257879525947
Ar -0.4269902575947033 -1.287227340931671 0.3555692985970826
Ar 1.566239650573923 -0.1836742974592205 -1.608128275089765
Ar -1.012767095097433 -0.3726444876502077 -1.52560397714311
Ar 1.760872349344603 0.4624572792639545 0.9702015131648689
Ar -1.838407386944292 0.4448819457820178 1.59681979835522
Ar -2.478705307211807 0.2982841324669457 -0.3426328330467011
Ar 1.618222850859348 -1.060881169665343 1.4460992742775
Ar 1.367562749947053 -0.08129508714902756 1.874376592363268
Ar 1.30632776702038 0.1831893526998543 -2.586568849880696
Ar -4.091250677881812 -3.55019268310271 2.836792198919942
75
algorithm=bh size=75 seed=0 index=3 energy=-363.6337716935923 step=4
Ar 2.210364636035385 -1.296724220757936 0.01518820487725391
Ar -0.7724799011225952 -0.1152899174461421 0.6878358261933049
Ar -2.2096432163471 0.1433128720616723 -0.4331139829903719
Ar 0.6994090102357715 -0.7547805297600547 -2.510665339310924
Ar -0.6453981118756786 -2.068708405399788 -0.09279391629393591
Ar -1.290370833601431 1.086039417031545 -0.5559606423567841
Ar -0.8210175181658073 0.6209250167190384 -2.083472977334697
Ar -0.9873507957479284 0.8193938095014538 1.15272038776328
Ar 0.5906122824215903 1.148188148992616 0.4621105259084921
Ar 0.8271460644761897 -0.1748511611685643 0.6468517195621714
Ar 1.677698131788209 -1.172457983242255 -0.9454688095712832
Ar 1.206792995797801 0.9432675634438551 -1.166655540036207
Ar -1.484895054980788 0.7943892424998309 2.116382218151363
Ar 0.2286958144599279 1.074802543558565 -0.5685276575471099
Ar 1.725169011369711 -0.344282860078335 0.01344125056409017
Ar 1.136472364764926 -1.691205533689907 -0.1714542916103492
Ar -1.33572367232104 1.600508487230026 0.4703386978777961
Ar -2.594100950671161 -0.8646133630381641 -0.1417773428831331
Ar 0.157302528802336 -1.531083932669776 -0.6381967762917855
Ar 1.728629082965338 -0.6649032730355042 -1.942735285793795
Ar -0.916023562782965 -1.466311326586826 -0.9711772218160233
Ar -0.191472869268467 -1.261915908346958 -1.78452985177043
Ar 0.5919707578555143 2.232435540661913 0.8887248193648786
Ar -2.050512120798604 1.102183864266358 1.197106818336671
Ar 0.03803802430871061 0.4804692377112478 1.065447924336089
Ar 0.5297093603590416 1.365317596036972 1.564618532737116
Ar -1.692209505969695 -0.5531106158321732 0.3590744863311172
Ar 0.3346649390334248 0.1951165468361979 2.055161669751677
Ar 0.5516933256403892 2.058421132586514 -0.1810580987179524
Ar -0.4904202091120177 -1.621167828550752 0.9014478913481251
Ar 2.105754525305494 0.4396031123950709 -1.681979112648734
Ar -0.3067720587967879 1.610135911129063 0.898048990527789
Ar -1.190995609389019 1.773578832095605 1.590626092740705
Ar 0.8131938897715769 -0.6642825600780762 -0.4009204871456122
Ar 2.099940286149629 0.6020027933379982 -0.5370999411772615
Ar -1.170087572902062 -0.89877225765167 1.304622836777117
Ar -1.621793693962008 0.557064674746324 0.3514662156906403
Ar -1.575341056755985 0.3281972040751951 -1.294370158290097
Ar -0.2705191988000208 -0.5907296780730442 -0.9056158497492447
Ar -0.5385160102360657 1.530654096402672 -1.269876095900433
Ar -0.0205556796496734 -0.6084808052684919 1.284312181023608
Ar 1.342823741740374 -1.120881037215447 0.7110933668954721
Ar 2.496866179148673 -0.4320394274095331 -0.763426570129792
Ar -0.5383172591863264 0.8316454925525815 0.1717320391354339
Ar 0.5557861819076745 1.848367681243608 -1.260375224747229
Ar -0.3980444534209631 1.052939362360287 2.008643061622715
Ar -1.064994934514473 -0.01643192354239729 -0.3489540294829696
Ar 0.2332823309696516 0.9168628347077904 -1.757025918311359
Ar -0.04116026472680075 -0.1609663681192374 -1.929975562685185
Ar -1.640460281613774 -1.561216752752309 -0.07068588805029739
Ar -1.030965383939384 -0.5262545076404416 -1.659577749118744
Ar 1.918542602906772 -0.2644539942115676 1.085479561082099
Ar 0.5429967046491193 -1.561796689521956 1.32852758279075
Ar -1.699064547400681 -0.7406241516135135 -0.8024926511488795
Ar -0.7352177086666052 0.006574505404714976 1.814789199232101
Ar 0.3369358786693562 -2.169728465991491 0.3940960871094196
Ar 1.024503377490592 0.4321811017788315 -0.2077334824204691
Ar 0.7364859448251281 -0.839265300214928 -1.438074970151018
Ar 1.438756847831432 1.435523705035425 -0.189009293132222
Ar 1.460012495537363 1.561795178282351 0.97429736487364
Ar 2.694076633549834 0.03477611145041767 0.2623248436076953
Ar 0.4773797614997231 0.1402163656093733 -1.04798207006278
Ar -0.5065764512690974 1.837681340838531 -0.2086433571881925
Ar 0.02194068710200562 -0.02895441889569259 -0.04357685066439874
Ar 0.2805093038169525 -1.085751046589825 0.3764237999451221
Ar -0.717316826205203 -0.9719585948889056 0.01225439522311491
Ar 1.490143092007437 -0.1257190292013594 -1.030254230166396
Ar -0.5130956067929038 0.4702823080373978 -1.073524996875376
Ar 1.785913877522891 0.6430422731738035 0.5089838223482391
Ar -1.726620183399426 0.03715711932991014 1.31512345701785
Ar -2.575905475812948 0.06563911604009051 0.6088435620083461
Ar 1.016126279391976 -0.5832905826275046 1.64096740056098
Ar 1.155600479208634 0.5195058674405993 1.382262301205819
Ar 1.028046594559963 0.1780787229328043 -1.982459160976399
Ar -3.926047445672638 -3.985272278426689 2.469852250025779
75
algorithm=bh size=75 seed=0 index=4 energy=-366.4194163417545 step=5
Ar 2.580133094278161 -1.055823412913503 -0.02212625637115346
Ar -0.798953784629335 -0.1649637892081973 0.4188804508283505
Ar -2.388454560496946 1.095739902034417 -0.2816770928577286
Ar 1.083612670220713 -0.5925635985405805 -1.54585049125562
Ar -0.5684923109528924 -1.975377482964526 0.2294523607407591
Ar -1.506569559344376 0.8092900678714742 -1.014028022733829
Ar -1.208939328094362 0.6876310126888886 -2.082101143249781
Ar -0.851307695701177 1.166850186665357 0.5953525261637364
Ar -0.3732993754566208 1.906810334172997 -0.02340444855044846
Ar 0.07030599534030652 -0.5701219802084674 1.149607740384979
Ar 1.875319249614763 -0.9394926168343921 -0.8901765310827369
Ar 1.316968375859769 1.160997772099093 -1.050292342216743
Ar -1.196534667102616 1.486156942660253 1.55551703494099
Ar 0.5030769680238174 0.3504150275718308 -0.8738203015562991
Ar 1.800185811855187 -0.3069731349169462 0.007281225957742516
Ar 1.505926055887904 -1.373814785356904 0.03394763577154802
Ar -1.221312628135761 2.191280843685162 0.6643952036986295
Ar -2.40944328623373 0.3024758723957373 0.6154586266202936
Ar -0.1507518559985216 -1.599595305459194 -0.7283234103508024
Ar 2.141390464273781 -0.2532219128353362 -1.727818449852911
Ar -1.232760283674874 -1.946585074244663 -0.6971949256684713
Ar 0.09786284646475879 -1.036617231926191 -1.646216411134049
Ar 0.6235388992543511 2.084879475173941 0.4181265905082415
Ar -1.932814480920478 1.327072966051589 0.7166013632327268
Ar -0.3223272847221806 0.4377294583801948 1.136856335353408
Ar 0.3351307946116718 1.139571240451544 1.638619524760943
Ar -1.7898124474139 -0.6021099823099267 1.271659272092768
Ar 0.2637417245013621 0.08368696138791366 2.0115350778884
Ar 0.2250193587172964 1.083914510030302 0.4860793788054797
Ar 0.07743156046858032 -1.666535039481639 1.069586353481821
Ar 2.321609881286091 0.7713792392377998 -1.304248853041159
Ar -0.2362726113805213 1.896645111821727 1.101255265021459
Ar -0.6559675422061558 0.7131736029208366 2.113721962891058
Ar 0.9220959835330279 -1.548868857452753 -0.9449851069269574
Ar 2.156534970993855 0.7243554616562959 -0.1696988047188104
Ar -1.792578949296416 -0.5124630950304232 0.2079642357319522
Ar -1.524499939483321 0.5494843526242849 0.06475318242756017
Ar -1.681749649019013 -0.1911197088931001 -1.562791583155509
Ar -0.162241395160424 -0.4802475369671234 -0.7515412265270323
Ar -0.5850829812212619 1.470355531136494 -1.050963284965389
Ar -0.8719801254685151 -1.122604913664756 0.899265963932011
Ar 0.9748188890296233 -0.6058986860487268 0.5814461871212264
Ar 2.618937727500221 -0.1377278227695053 -0.7004545964254385
Ar -0.4930852133614326 0.7044508717079144 -0.2928115611652531
Ar 0.4138498041657599 1.366641744202134 -0.5189027043733121
Ar 1.299625786149083 0.6005039982997188 1.890173918350294
Ar -1.15844768458653 -0.1369583613406807 -0.6390388324944177
Ar 0.3268063580754051 1.1081298049067 -1.615329223180436
Ar -0.718684234822901 -0.3415445265690339 -2.092421135016436
Ar -1.689524229994899 -1.616220478205513 0.2998454626820499
Ar -0.9460830960909398 -1.028788582325088 -1.285829027292427
Ar 2.005149115389646 -0.8151406092746224 0.9346081460429468
Ar 1.159107344203576 -1.540115609363401 1.074980848391363
Ar -1.887548949643364 -1.007926009028204 -0.7491864061166499
Ar -0.818184541683922 -0.3317354192613269 1.716497718671983
Ar 0.5762501241658404 -1.949336223620742 0.08616565626666164
Ar 1.104727687813348 0.5627709607780862 0.02431505097191265
Ar 0.8657789354821476 -0.593996014972285 -0.4720441762433721
Ar 1.461333569542647 1.590124684573486 -0.07228205653428928
Ar 1.215627757134404 1.261452439833462 0.9425557511226765
Ar 2.747404130774668 -0.04105611872368858 0.4375112724133182
Ar 1.285161974480394 0.4715289921954884 -1.887684841852929
Ar -1.385633719332725 1.584133276583395 -0.2603306856171695
Ar 0.1991475839535467 0.03270143160162451 0.1517532542998059
Ar 0.05761047667953537 -1.023358203141089 0.1796075438715556
Ar -0.9279063253414034 -1.049020604108796 -0.1921040647961223
Ar 1.553841703653912 0.1324612662588455 -0.8986529543138748
Ar -0.5105947574698099 0.4000022807703569 -1.312998439233963
Ar 1.782266621491841 0.2900076825537085 0.9007844966717899
Ar -1.418732025957816 0.4285256501431701 1.162157901730912
Ar -2.244049413778839 0.05322834264826221 -0.6139448683049671
Ar 1.157499978533205 -0.5019195782617093 1.632925088858912
Ar 0.7233841841454257 0.3083792409533638 1.039803267650261
Ar 0.289624735487242 0.03005501172004205 -1.919043479287919
Ar -4.057218258858802 -3.705151246224883 2.429268862111916
75
algorithm=bh size=75 seed=0 index=5 energy=-358.3106285079571 step=6
Ar 1.913130278747207 -0.8827778709024408 0.4872476271372421
Ar -0.6962393338484365 -0.1202218101243414 0.08244892024843477
Ar -1.732727456050907 1.200519985646076 -0.5435743753119169
Ar 1.199524997144635 -0.60638213637333 -1.440492778708661
Ar -0.5230161360834021 -2.112625322781011 -0.02237876158186964
Ar -0.8064410125025396 1.604847500420398 -1.04187314806402
Ar -1.438643397101806 0.8741527685297887 -1.59211816870377
Ar -0.8638799772367549 1.075529578237018 0.78504532860857
Ar -0.00683414634510931 2.183803358359776 -0.5497578377213389
Ar 0.1765572722898947 -0.5532699292149758 0.4953309055126417
Ar 1.843186100789756 -1.353702086379808 -0.6364569972818915
Ar 2.129966196595583 1.356987943718191 -1.074619775987992
Ar -1.670807525796186 0.5747119240277285 1.34115444313622
Ar 0.5988155383227257 0.3160947252585089 -1.423714220627982
Ar 2.169011904046783 0.1911309431666637 0.3210261600304211
Ar 0.9974574393715617 -1.124585772213696 0.01632835346621052
Ar -1.441955108390256 1.681511713317321 1.512184151459671
Ar -2.388863515908117 -0.3009281804680161 0.6221487126575228
Ar -0.8393615708167186 -0.7751028133864259 -0.7861414656653958
Ar 2.330632774022473 -0.5471453078308351 -1.322507331128341
Ar -1.434438088431466 -1.603016244331171 -0.4327649373397702
Ar -0.3947995385715755 -1.787256529401098 -1.10069524766131
Ar 0.9835153131839734 1.693946362104619 -0.270663105010705
Ar -1.863670498383092 1.455717763937527 0.5281042721289078
Ar -0.4290965538222061 0.1606173106450058 1.080314253413594
Ar 0.1464537557565614 1.071461342755425 1.277451974434382
Ar -1.34561562524159 -0.3859905243387923 0.9454339534671213
Ar -0.04366100860842161 -0.7602944081427774 1.530668636723284
Ar 0.2033746021176159 0.4564493037939358 0.1545716915176933
Ar 0.1856550223641451 -1.597412209244177 0.7329898855832812
Ar 2.505400725762566 0.3960236140348074 -0.6825653402978389
Ar -0.456369695348412 2.020220747636281 1.111542262247347
Ar -0.763108665687029 0.8964964414167399 1.866249499372951
Ar 0.7678924666244746 -1.491851994170478 -1.010179478022658
Ar 1.938040303122789 1.188732765865691 -0.01612935869350751
Ar -1.6165357895993 -0.5978828853679783 -0.07482505135589654
Ar -1.611649737386268 0.4380882001531732 0.261872744843184
Ar -1.883211690635733 -0.7257282940185652 -1.120695268510522
Ar -0.2921689341428649 0.150893412859374 -0.8591726010627536
Ar 0.1362533014884889 1.82212155281541 -1.594475614504119
Ar -0.784114273091061 -1.142951867578365 0.402220795530965
Ar 1.140815228392231 -0.09315424832074046 0.3590670816063022
Ar 2.683335354484805 -0.6271378826501584 -0.2440716316544374
Ar -0.733444691299279 0.8986016829593128 -0.2410324198155737
Ar 0.1823047289679065 1.111174134378218 -0.749680575411817
Ar 1.155782305550822 0.8827681894905636 1.734190156871552
Ar -1.363202849965144 0.1875140746289343 -0.7701973589149026
Ar 0.5872485765621878 1.030523144995247 -2.258383699126286
Ar -1.093733801185416 -1.232314923574825 -1.735767104479886
Ar -1.842612022381727 -1.352005273284695 0.65626218707569
Ar -0.9074517533365387 -0.1448018978807364 -1.706708069102156
Ar 1.711475249812155 -0.06906122628484158 1.290390467312708
Ar 1.314490138754377 -1.892340654314464 0.6928004155560562
Ar -2.533798155200423 -1.095956569822225 -0.2428075583197534
Ar -1.008351843357051 -1.283250265652932 1.462481105052474
Ar 0.5829669887327807 -2.13493735800371 -0.1448835281717794
Ar 1.123425732939169 0.6233492141729396 -0.4668687824379107
Ar 0.5879376914726487 -0.3268711679805588 -0.5454261293327545
Ar 1.07687186989878 1.322137204706669 -1.318257974715027
Ar 0.05243189478872375 1.50001607179643 0.2868385209125793
Ar 2.769333222303718 -0.4165284489990682 0.9869320656786249
Ar 1.682566804662267 0.3852595092253762 -1.395996506809023
Ar -0.9543857162556312 1.913480043424529 0.05236739608794484
Ar 1.037952557755787 0.9688578576554489 0.6083014054052961
Ar 0.9987886035825388 -0.9192459677833303 1.115635362890982
Ar -0.00215755762603574 -1.197324802804275 -0.3186817708705757
Ar 1.671493358550525 -0.3076701473941186 -0.5127911013748367
Ar -0.3459441287027632 0.8300749395161405 -1.692340543751086
Ar 2.041836743663383 0.9707334002177342 1.074798689151561
Ar -0.9659443808342807 -0.2167685468733248 1.948519710525635
Ar -2.398142040429061 0.06441847563875217 -0.4464806184725312
Ar 0.05063824879487585 0.2246054718341129 2.119877286734204
Ar 0.6238243779490036 0.1000639262606403 1.235850941009533
Ar 0.04767566412663345 -0.7420406897997736 -1.411154987728479
Ar -3.871685113893915 -3.303100341908604 2.618683860340279
75
algorithm=bh size=75 seed=0 index=6 energy=-360.9920813880473 step=7
Ar 2.335555155487448 -0.7007402356838203 0.03874115026675917
Ar -0.8184485571314976 -1.036671127630682 0.7456909219948843
Ar -1.532511445388536 1.338335880126363 -0.90862737513309
Ar 0.9646231116945139 -1.23537970874865 -1.519257201436915
Ar 0.159940009010202 -1.94118641738331 -0.2767234205362512
Ar -1.939692595646906 0.3191029981200084 -1.091791561904385
Ar -0.7360217015149874 1.131662481667377 -1.623196089123884
Ar -0.9573845267897529 1.385865826050981 1.111316149330895
Ar 0.1916717422730015 2.311046793818039 -0.9287072898576988
Ar -0.05310040851878236 -0.8062263163031828 1.482787630277256
Ar 1.227536646458662 -1.743725623969369 -0.5416553338752498
Ar 1.204624795789344 0.7879786453195203 -0.9388255872616499
Ar -1.722860578369036 1.031376962641035 1.831722320743781
Ar 0.1646781237837366 0.5601203992637502 -0.7335507308411469
Ar 1.682091795879748 -0.01384104753624681 0.5740015064198294
Ar 1.265161845089017 -0.9564613117074274 0.2412029112701891
Ar -1.256743359841473 1.697543875058643 0.09435670098286326
Ar -2.461060016471738 0.3052023922311762 0.6944735622240976
Ar -0.08636520517815666 -1.489087027300729 -1.263707180118376
Ar 1.82006122017866 0.05622292932443547 -1.52730116406052
Ar -1.603774186042098 -1.236185951395121 -0.02612347633588945
Ar 0.134311236524311 -0.7050891743689532 -2.038689201263813
Ar 0.6119261610029298 1.495855873837879 -0.3491945558504547
Ar -2.019839243170761 1.315408202113173 0.8027251576425521
Ar -0.3737848348046973 0.07083105366524213 0.9599122695804623
Ar 0.06743352272617059 1.093436357920702 1.285404662515816
Ar -2.1083331130638 0.007471432778041868 1.7206427800234
Ar 0.3619049624444282 0.1746648306067267 1.78483779580677
Ar 0.377763486880815 0.711582074733808 0.345304254701376
Ar 0.001902999086750128 -1.8663195421487 1.1788039965036
Ar 1.960296245084309 1.14932195657287 -1.651499159651675
Ar -0.1768091426991247 1.729807698980231 0.3941483191494679
Ar -0.7171947950891672 0.5684300083450272 1.859049914977631
Ar 0.5129645358507789 -0.9224952764146763 -0.5646922923279817
Ar 2.119174185394182 1.334505117992883 -0.5736187019461797
Ar -1.133184626560516 -0.2154887265968646 0.1211634520984749
Ar -1.726999300664814 0.687246849560704 -0.05239782215920191
Ar -1.956490621075413 -0.5557640513933612 -1.793903747600715
Ar -0.2838515342772753 -0.3920072170957767 -1.087378729907943
Ar -0.4522822906188241 1.446686293158747 -0.6254990480978541
Ar -1.096125493360598 -0.4386098614748676 1.61982193429255
Ar 0.6555514188202917 -0.2251471720363896 0.8133202234228619
Ar 2.643958513480168 -0.486348087710662 -1.012206190497678