13
algorithm=ga size=13 seed=0 index=0 energy=-38.35187975404729 initial_offset=0 step=1
Ar 0.7071934518903594 -0.3639700419845446 -0.6181732677290761
Ar -0.4438542203670312 0.4525031960897358 1.096124886546838
Ar 0.07875090013262905 1.034571474670965 -0.2689490827107821
Ar 0.657375359468804 0.6300941487902789 -1.123876687746318
Ar 1.123669437366627 -0.4310212786369508 0.4125904026891349
Ar -0.4922389556513838 1.444384054807176 0.5908920261082004
Ar 0.29967873002688 -0.2863097551120376 -1.654455346369312
Ar -0.8578262329494826 0.5304956907879425 0.06588860862932171
Ar 0.5488018186810517 -0.02522401364861088 1.267856857983312
Ar 0.1280377775355659 0.04379687185335743 0.2354184148585368
Ar -0.2816195035214351 0.1215547176433319 -0.7934003661935094
Ar 1.066749670770685 0.5529847021414298 -0.09381373214372946
Ar 0.4949457867901368 0.9586785379115176 0.7605441561221513
13
algorithm=ga size=13 seed=0 index=1 energy=-39.6476856862588 initial_offset=1 step=2
Ar -1.031218327735736 0.7361996336953512 -0.2491706851749119
Ar 0.8095988494458349 -1.172837428588614 0.3358702457297571
Ar 0.6060590886544294 -0.2805146166498614 -0.307034458927982
Ar -0.8122653237496874 0.8159606827549255 0.8401057626430919
Ar -0.41995395665483 -0.08705248841659806 -0.6840976550958185
Ar -0.2101961521017803 -1.001145336238076 -0.09018286354190348
Ar -0.8235684719728539 -0.1836284420086323 0.3496685766822085
Ar -0.6097545403127133 -0.09674337339304044 1.441315628677419
Ar 1.034427495431704 0.3238405022698997 0.5199555669192912
Ar -0.5842284246039319 -1.105189333953041 0.9499786373405453
Ar 0.195697411585833 -0.3581493033220082 0.7323682136510087
Ar 0.2151081872212468 0.6315054228664381 1.222162357304023
Ar 0.001850793440852744 0.5451008959904098 0.1303767245067493
13
algorithm=ga size=13 seed=0 index=2 energy=-39.22132560256355 initial_offset=2 step=3
Ar -0.6516302191754529 -0.1347434852013652 1.034050387808187
Ar -1.074183932861926 0.3729703188404098 0.1336943525475107
Ar -0.529671786489622 -0.8880122260458087 -1.079790801934547
Ar -0.4613076008069988 0.1766331557302799 -0.7670182483555097
Ar 0.02054470987420981 0.1848104871467334 0.2368986196362838
Ar 0.5661085390198014 1.107700914784792 0.4323125262125819
Ar -0.6413448098975307 -0.6459981785638854 0.003165249139020475
Ar -0.4690835438325008 0.9650351221873081 0.8622195324102606
Ar -0.3309017679997503 1.136154230652087 -0.2305277221103634
Ar 0.368827434531792 -0.5215281447667263 -0.5232644202964968
Ar -1.271953920382179 1.459975374645697 0.2683569961199277
Ar 0.5742814569462771 0.5983425055898536 -0.6054940066591848
Ar 0.3591845659151006 0.3503006167634249 1.265833705538444
13
algorithm=ga size=13 seed=0 index=3 energy=-37.9703558427223 initial_offset=3 step=4
Ar -0.3765018387128929 -1.277364459020817 1.353776604460881
Ar -0.1237691366516043 -1.667807939720861 0.3371459237166274
Ar 0.5754134011412209 -1.00178104368179 0.8828707203117901
Ar -0.9272998201734441 -0.8965567171034753 0.4691916660278693
Ar -0.1886997622219501 -0.2243383958987417 0.9848103094981591
Ar 1.621849010171429 -1.195297147124883 0.5881133556886881
Ar 0.7569233445794342 -0.4878468576479165 -0.849971697190832
Ar 1.754725972622559 -0.8340808323894696 -0.4650448037803612
Ar 1.051294182884446 -0.2911764467305999 0.2077084511802923
Ar 0.8713398886357197 -2.045481887804382 0.7117037965033122
Ar 0.02230314929829623 -0.6276605925687312 -0.02643039736460526
Ar 0.8253586684786925 -1.360468895601628 -0.1608731945791441
Ar -0.7560030553826024 0.150072118998699 0.09880998579733617
13
algorithm=ga size=13 seed=0 index=4 energy=-39.27338627476666 initial_offset=4 step=5
Ar 0.9873340103198067 0.166877445089704 1.949477383724835
Ar -0.8905320391526865 0.06695658116263968 0.02082440112193738
Ar 1.016591139488138 -0.4815761673053444 1.008532306140005
Ar 0.9371162822683844 1.277522192556904 0.2967112079336225
Ar 0.03594318647976916 0.7987923075157501 1.897607441086564
Ar 0.002472206878125484 1.440385475539174 0.9372485625763886
Ar -0.5402632131298206 0.4647977724494142 1.00179325653211
Ar 0.7404284382978518 0.9030151575294266 -0.7406018271696517
Ar 0.06043777262741226 -0.3143634342460663 0.4556705226689346
Ar 0.9851727999787787 0.1577817761035316 0.05211260613039943
Ar 0.5760956917658753 0.5154848605023062 0.99491005633833
Ar 0.05023671140234637 -0.2858537531607074 1.565969634205247
Ar 0.0020524891535164 0.727299434843781 0.06796336659552124
13
algorithm=ga size=13 seed=0 index=5 energy=-34.92889378386711 initial_offset=5 step=6
Ar 0.7147897987168675 0.3298803707992878 -0.4536128259824659
Ar -0.02887518794386319 -1.392906920526227 -0.4009787873011951
Ar 0.1421843487498523 -1.506475508722917 -1.514285281849751
Ar 0.8884484141283088 0.2146158212242709 -1.583968030272365
Ar -0.2917749417135762 2.222795744800192 1.854183153144844
Ar 1.43802684645098 -0.4146533056412907 -0.8509749584466129
Ar 0.7627539339506616 -0.6945080849775581 -0.004917406749316532
Ar -0.1233763700518173 0.4579437309669254 -1.17983806291162
Ar 0.7021556508784431 1.215312621381658 -1.130224533625625
Ar 1.66336246793616 0.6737591516748954 -0.9273428592006528
Ar 1.00456108929401 -1.429325868229349 -0.8140777478355681
Ar 0.3245809640197595 -0.5413739428776487 -1.009112006646947
Ar 1.036506676420414 -0.8762312894007452 -1.786838535673616
13
algorithm=ga size=13 seed=0 index=6 energy=-32.48870918392719 initial_offset=6 step=7
Ar -0.2202373658623058 -1.100282841868889 -0.6950337259846723
Ar -0.9543392704138005 2.283649897471767 0.8177788879596644
Ar 0.5273236385606643 -1.155558981185364 0.9733121676654805
Ar -0.4491475157754512 -0.9861662470025971 0.4150482220212104
Ar -1.945361602034358 2.260128282734105 1.344317084823718
Ar 0.8544249801970504 -1.4025240269421 -0.7959216080537118
Ar 1.349580673599142 -0.4241365950295137 0.6665853237457008
Ar 0.2615512274919996 -1.764663804772837 0.07143987464771649
Ar 0.5711396672343232 -0.3652156160573068 -1.063263313743642
Ar 1.309646256360967 -1.437553674950744 0.2126970965078859
Ar 0.5159325292535454 -0.6660577974691696 -0.006637640903770182
Ar 1.513839570298502 -0.5608792226983628 -0.4514140291957175
Ar 1.585429374379382 -1.32619818116094 1.284443715538872
13
algorithm=ga size=13 seed=0 index=7 energy=-43.89940495063129 initial_offset=7 step=8
Ar -0.2176338848631047 0.4759661854425987 0.9435978777167643
Ar -1.066661356383794 -0.2384390455464301 0.6931633307968742
Ar -1.222478429973263 0.8845892837175876 0.6011778377883148
Ar -0.8804573158162442 -0.6540233174174608 -0.3492089132697013
Ar -0.5694115477473894 0.3440628880570775 -0.07091207964555062
Ar -0.2583609701895735 1.342145415505447 0.207381984260409
Ar -0.07217096713798492 0.9265576060285349 -0.8349954126801648
Ar -0.9211922320836941 0.2121565608702661 -1.085421172003521
Ar -1.63212221054086 0.1862141876692273 -0.1978248868243364
Ar 0.4933008776861843 0.5018925403086464 0.05599327102637695
Ar 0.08364740607857521 -0.1964703756403683 -0.7430076929587576
Ar -1.132577429015041 1.163072487598827 -0.4980450574477578
Ar -0.006254770477658818 -0.4749514664536833 0.3562235250906894
13
algorithm=ga size=13 seed=0 index=8 energy=-37.66181646191016 initial_offset=8 step=9
Ar -0.004571358345168437 1.060836197993692 -0.2707763735888666
Ar 0.5834483995884669 0.1222796153393148 -0.5425042756751233
Ar -0.4969435201330053 0.1608938044358523 -0.6666114948479077
Ar 0.01510154087791444 -0.7475399451174041 -0.1715882106161936
Ar -0.6083033744192698 -1.421522522162237 0.4339046956030422
Ar -1.00116322612707 -0.4222791380674478 0.1214099183512361
Ar -0.2748157022375181 1.187171844548941 0.807191495203628
Ar -1.130993845634711 -0.6679135099666832 -0.9667746185555866
Ar -1.520073141694393 -1.361901562106725 -0.1961536044933908
Ar -1.021820159779495 0.7070281589563671 0.1286184837402382
Ar -0.03903347679265112 -0.6549321977764843 -1.253907403140989
Ar -0.5262666989078287 -1.541776531771303 -0.6891530489787211
Ar -0.08119414864101342 0.1737171929908716 0.3901403802911559
13
algorithm=ga size=13 seed=0 index=9 energy=-32.7647709947755 initial_offset=9 step=10
Ar 1.291158641249872 0.1115506442673136 -0.1345710204680718
Ar 0.6522283741502204 0.4494923467428827 0.717247143523558
Ar 1.125698416398183 0.7633044129193431 -1.02023796772968
Ar 0.09753211330378043 0.6071516817879606 -1.409542015151369
Ar -2.324877231486094 1.554803306509197 2.272810663286752
Ar 1.747658289711007 0.6832207690448877 0.7093773967489139
Ar -0.6500494335455974 1.017744126836323 -0.6820771325603016
Ar 1.005626592383966 1.443800211409912 1.07813580598845
Ar 1.073650114008832 1.207257852764145 -0.00525741609342967
Ar 0.3440805305967433 1.518579815034609 -0.7835202083228301
Ar 0.2656331826115141 0.5117765243664869 -0.3149748189726422
Ar 0.6773762207374139 -0.2591179981164278 -0.996128060355052
Ar -0.3947176865386731 1.585813862771955 -1.615240595806877
13
algorithm=ga size=13 seed=0 index=10 energy=-40.96700194740359 step=11
Ar 0.4623066779555269 0.7943703481068679 0.466823925621643
Ar 0.7161659342564408 1.414973473526727 -0.425088346000255
Ar -0.2715863547663318 0.8959086047690815 -0.4315843751052084
Ar 0.06134408481793461 -0.03692021712498741 1.162586239417562
Ar 0.6969772412616299 0.3086664634841976 -0.5344808243859173
Ar 0.8954330447906526 -0.247495320358193 0.4272480550983664
Ar -0.1235391304183008 -0.03354329681610698 0.09712554802554832
Ar -1.121998685807526 0.1267928426478347 -0.2859863438192377
Ar -0.9187756165037297 -0.4495134034769557 0.699734021618385
Ar -0.258573618600243 -0.08784530374481532 -0.9854054465867631
Ar 0.06102100992542913 -1.000254656940492 0.5711869458659696
Ar 0.4540599139971833 -0.783639690013256 -0.459490732244415
Ar -0.6528345009086666 -0.9014998440599002 -0.3026686675056798
13
algorithm=ga size=13 seed=0 index=11 energy=-39.65956485240891 step=12
Ar 0.8843630696346005 0.3260337804452937 -0.2914974384128104
Ar 0.7178269972856798 -0.5505084692881548 -0.9521953189626925
Ar 0.554492482497269 -1.189026798421273 -0.06104197488592708
Ar 0.1157416563965645 0.375663627809777 -1.101287237120815
Ar 0.7215410225646673 -0.3105312534301914 0.5969329816226444
Ar 0.6751120309741797 0.7983270484585325 0.6957330810383163
Ar -0.05356061964929135 -0.2680397472489957 -0.2018663005232891
Ar -0.08823601999673533 0.8370416890926814 -0.1090359405369007
Ar -0.2139971928924925 -0.9134829942763546 0.6979228552244808
Ar -0.8990015151040667 0.2906230187853569 -0.6493454749239821
Ar -0.252338795933475 0.1954577127489382 0.7864082756621232
Ar -1.063162111067258 -0.3511539817913668 0.2463941572576995
Ar -1.098781004709651 0.7595963671157618 0.342878334561162
13
algorithm=ga size=13 seed=0 index=12 energy=-40.96700193364023 step=13
Ar -0.3161358584007068 0.2565520249086436 1.079234366766551
Ar 0.7395905866636002 0.2250167327110053 0.6693048917895404
Ar -0.0007784495669428275 0.9772890301053919 0.2762386144551865
Ar 0.1842060306173325 -0.7377669287909475 0.8823270549500282
Ar -1.016299052106715 0.4982172179807705 0.2222956242697687
Ar -0.9268174802537543 -0.5651499049021831 0.5978759425288047
Ar -0.1123477377722667 -0.09465547120406735 0.06509990579693635
Ar 0.6883295808849217 0.4511649601400279 -0.4351697437320493
Ar 0.8203522462390669 -0.6196803652330595 -0.0754263020260882
Ar -0.3922787519331057 0.615681219062172 -0.7159973727596672
Ar -0.9764187220346572 -0.3371777511056519 -0.5381844427695769
Ar 1.208066725025707 -0.2982621207533332 -1.071166350034351
Ar 0.1005308826375154 -0.3712286429187728 -0.9564321892350875
13
algorithm=ga size=13 seed=0 index=13 energy=-39.65956486827037 step=14
Ar 0.2567872498086892 0.4740306129855115 -0.8262797291155314
Ar -0.6652925045569328 0.893862450708265 -0.3545877948559091
Ar -0.738217781093979 0.05490279417606991 -1.084897593046073
Ar 1.183246017175056 0.3599969109146273 -0.2178785537012102
Ar 0.2622210976798163 0.7681873892839853 0.2478785825841668
Ar 0.6139041847691097 -0.5361335052239217 -0.5559341904372537
Ar -0.7333995788530361 0.5370321822173038 0.698602800815608
Ar -0.3051406556140804 -0.1283765484211681 -0.07660936878769523
Ar -0.3800052398188158 -0.9583559390027507 -0.8137266497046735
Ar 0.1991824140531647 0.4180680887244802 1.299008310098331
Ar 0.6221532973676905 -0.249940028473004 0.5203567784519314
Ar 0.05791655103641484 -1.15185782569067 0.1929003239177667
Ar -0.3733550519530914 -0.4814165821987289 0.9711670837805427
13
algorithm=ga size=13 seed=0 index=14 energy=-40.96700195244414 step=15
Ar 0.3959368103361123 0.5768672111605083 0.745687231657557
Ar 0.3328589183798933 0.9186872961730586 -0.3284768059683058
Ar 0.9291819084680812 -0.01088453855880541 -0.05669237212409744
Ar -0.6026901465015897 0.9332440426156434 0.3500940697712807
Ar 0.3846784947258315 -0.5492542342738886 0.7627119996562994
Ar -0.553091766742319 0.01829524016579161 1.012049239634437
Ar -0.1599577554666073 0.01358533936609266 -0.007144476467525428
Ar 1.200764850444909 0.5932402544568922 -0.9497221983506705
Ar -0.6859356718470039 -0.6085846651914789 -0.7182381175512011
Ar 0.2812332674658303 -0.03753775294511715 -0.991047449666087
Ar -1.234426599488857 -0.0091243856799484 0.1093506272731557
Ar 0.3147555679654602 -0.9267225672494458 -0.2961520584125376
Ar -0.6033078777396824 -0.9118112400391981 0.3675803105478017
13
algorithm=ga size=13 seed=0 index=15 energy=-40.96700195452784 step=16
Ar 0.7593075996852851 -0.8656289683596153 -0.06807825808175924
Ar 0.9036326646665859 0.1915047570571796 -0.4220953298495342
Ar 0.2430458930996136 -0.5034268581276726 -1.008952861510398
Ar 0.7661726945488133 -0.012216295385455 0.6770700957341175
Ar -0.3105795502670341 -1.166902890941551 -0.2787985562456183
Ar -0.06838782801846072 0.5733174028079098 -0.8439340584691146
Ar -0.06182554205437259 -0.1466019556472812 -0.02251310857831645
Ar 0.02159429212363554 -0.8571850538035619 0.788360076522151
Ar 0.2597222688779541 0.8728223800899414 0.1935013770812486
Ar -0.8341992765836515 -0.256758210435819 -0.771313857395457
Ar -0.2979168219361445 0.240713586103065 0.957066559001169
Ar -0.8286621343148581 0.6130968577158623 -0.01023919362387609
Ar -0.5519042598273656 1.317265248926993 0.8099271154153849
13
algorithm=ga size=13 seed=0 index=16 energy=-43.89940495181006 step=17
Ar 0.3969102303235718 0.2511665343548208 -0.9745520968648743
Ar -0.722553301156686 0.1874915557374263 -0.7830289473060321
Ar -0.08836859987617507 -0.7567081039711021 -0.7680849683953526
Ar -0.1129004905213662 1.02781366114188 -0.3181621493950494
Ar 0.9132415274876837 -0.4999309547197198 -0.2939860945120639
Ar 0.898078712955657 0.602973508576102 -0.01591400558345332
Ar -1.823859079792923e-06 1.266836835595752e-07 8.471281611246428e-07
Ar -0.8980859089979771 -0.602962033298474 0.01591405994635121
Ar 0.7225619463881442 -0.1874882796865252 0.7830212296350543
Ar 0.1128990733855134 -1.027815682540491 0.3181570069141129
Ar 0.088363588244743 0.7567088496104692 0.7680874726951972
Ar -0.9132469004766035 0.4999266690991993 0.2939911880841274
Ar -0.3968980538974031 -0.2511758509872922 0.9745564576538005
13
algorithm=ga size=13 seed=0 index=17 energy=-43.89940494971601 step=18
Ar 0.599849917227298 -0.8972118163681799 0.07461261162097067
Ar 0.5934440868383938 -0.1119685774747666 0.8975866200614558
Ar -0.3318780548131386 -0.7462488089079043 0.7094612775297013
Ar 1.069373561677175 0.1225538454138047 -0.1086056413869076
Ar -0.4278185749861687 -0.903754639816612 -0.4130056573075867
Ar 0.438199205407138 -0.3667916179015943 -0.918596324917814
Ar 2.024313252511746e-06 1.502287650835683e-06 -1.555485110638798e-07
Ar -0.4381970285137347 0.3668042755361403 0.9185909920026867
Ar 0.4278247650837308 0.9037498158072098 0.4130095609331919
Ar -1.069371105344313 -0.1225630096360795 0.1086043094783014
Ar 0.3318734427227455 0.7462606863600525 -0.7094545799487442
Ar -0.5934449017947654 0.1119611769805735 -0.8975885085202322
Ar -0.5998573378176056 0.8972071677196966 -0.07461450399651569
13
algorithm=ga size=13 seed=0 index=18 energy=-40.96700187557371 step=19
Ar -0.9023564076701241 -0.5071714912628257 -0.5089501393202399
Ar -0.8494403675253892 0.6235755215736944 -0.4691468650572371
Ar -0.2219967923194944 0.05327056088897698 -1.218078650406852
Ar -0.8939576130669932 0.0248689673797663 0.4812640993104614
Ar 0.1317518132070184 -0.9219778381865192 -0.699540962580388
Ar -0.288586343970378 -0.9159755943584097 0.3511759323807839
Ar -0.003003273767589606 0.005783993471781043 -0.1605601504503539
Ar 0.2194627044441788 0.952458518325441 -0.6335644563833404
Ar -0.2030817177105508 0.9119612692424082 0.4155257186699319
Ar 0.1361434641068275 -0.03877513488913483 0.9201471351547003
Ar 0.8470308217151949 0.5350695625727134 0.2426993368265998
Ar 0.7926621185812874 -0.6274197164346345 0.2017930381278976
Ar 1.235371593976013 -0.09566861832325793 1.077235963728037
13
algorithm=ga size=13 seed=0 index=19 energy=-43.89940495746315 step=20
Ar 0.3211198668184653 -1.01435817768628 0.1957948002509042
Ar 0.9838779458287715 -0.1208959607276525 0.4332939439203823
Ar 0.03769463595454128 -0.3037785252310276 1.037627884895423
Ar -0.3102552803423811 -0.7518954044568325 -0.7132827283820716
Ar -0.7688360956294992 0.3978453270356248 0.6488292078430836
Ar -0.7621206525181263 -0.6937594572696749 0.3290054890520256
Ar -5.065479081363861e-07 -2.331934326262099e-06 -7.432163822358117e-07
Ar 0.3102490186336909 0.7518917586793742 0.7132843589555339
Ar 0.7688372333796091 -0.3978412839926885 -0.6488313379806339
Ar -0.9838795032364397 0.1208973569808763 -0.4332916129162028
Ar 0.7621229529960795 0.6937583848136848 -0.3290014226364265
Ar -0.3211127083438922 1.0143580152689 -0.1957986251437731
Ar -0.03769690699291143 0.3037802985200198 -1.037629214641868
13
algorithm=ga size=13 seed=0 index=20 energy=-41.0172005178179 step=21
Ar -0.4774497311818878 -0.2581128285350735 -0.8800414209523669
Ar -0.6390313347811124 -0.6627291959010522 0.170665963536779
Ar -0.5221826296736874 -1.356058896534827 -0.6923119870321461
Ar -1.057985863173064 0.3515452897592541 -0.0884526352553561
Ar 0.3692745017090433 -0.7909291846778301 -0.3387649426699388
Ar -0.5497573558873002 0.1861113434158529 0.9096219648401209
Ar 0.009726327454843132 0.1909468567953705 -0.02879749049697906
Ar 0.6062637321560478 0.1399495869604751 -0.9292973767987542
Ar -0.3318767418361744 1.144002054333088 0.3495726091045883
Ar 0.3124493022784028 -0.5205026443475272 0.7494346344108582
Ar 0.6968457996628133 1.013189146519281 -0.1701313512904954
Ar 1.075169998204229 -0.02051525162066404 0.08865701523366594
Ar 0.5085539950678422 0.5831037238336582 0.8598450173700232
13
algorithm=ga size=13 seed=0 index=21 energy=-43.89940495530746 step=22
Ar -0.3617649371813688 -0.8445794416720036 0.5711273902045837
Ar -1.059399692068519 -0.2095196429576182 -0.06443351532451062
Ar -0.5922031577432447 0.2266726990131445 0.8765228620498464
Ar -0.2861245079970925 -0.8781366690379419 -0.5633698264026576
Ar 0.4698085604121359 -0.1723694018293469 0.9591376721628417
Ar -0.6589779164179911 0.8551753412392687 -0.06923346666021217
Ar 1.605488818804184e-06 -5.500935541220745e-07 1.101581483481573e-08
Ar 0.6589862605062282 -0.8551728078375087 0.06922928890706234
Ar -0.4698162472169535 0.1723679064613443 -0.9591328742447194
Ar 0.286127048505756 0.8781362598266139 0.5633672581277535
Ar 0.5921996668696536 -0.2266684651197017 -0.8765261393773903
Ar 1.05940018721502 0.2095180722104943 0.06443801373261721
Ar 0.3617631296275524 0.8445766997967956 -0.5711266741910127
13
algorithm=ga size=13 seed=0 index=22 energy=-43.89940495517741 step=23
Ar -0.83636638112114 0.4091033250489305 -0.5509041320577925
Ar 0.1088439825491612 0.05434637429104442 -1.074977552221445
Ar -0.5851136947813954 -0.6998896138477639 -0.5815230293861311
Ar 0.1354726246895353 0.9863167460439821 -0.4233172046688166
Ar 0.5420222489412396 -0.8080679648982914 -0.4728775643657652
Ar 0.9873661033492704 0.2340635557180435 -0.3750940312969421
Ar 1.957138322239391e-06 1.30986022183497e-07 -1.488794453191657e-07
Ar -0.9873668220617334 -0.2340573086318567 0.3750961355743551
Ar -0.5420200753540669 0.8080701100105354 0.4728750457718194
Ar -0.1354797653178189 -0.9863158619100543 0.423318773323684
Ar 0.58511495969079 0.699884082707609 0.5815280367320826
Ar 0.8363673604857642 -0.4091108921501674 0.5509000985094844
Ar -0.1088424982079231 -0.05434268336803319 1.074975572964912
13
algorithm=ga size=13 seed=0 index=23 energy=-43.89940495854555 step=24
Ar 0.4177633476632457 0.8722890606936049 0.4847287261771064
Ar -0.7057292642170285 0.7189144106522165 0.3943124636868215
Ar -0.08500483508013969 0.9372590425284237 -0.5335709662669424
Ar 0.9113810297781617 0.3994445704690784 -0.4245024506113529
Ar -0.09296348764146191 0.04616228674109474 1.076848162862527
Ar -0.9064641325175344 0.151281632791357 -0.5707985872576227
Ar 9.181488787641805e-08 1.928813760642565e-06 -1.232532335684979e-06
Ar 0.906463032549146 -0.15128230411964 0.5707954055892642
Ar 0.09296121765823691 -0.04616507674317099 -1.076849298105315
Ar -0.9113820612894509 -0.3994444944872372 0.4244985589290508
Ar 0.7057290650980663 -0.7189141962464166 -0.3943106755462154
Ar 0.08500740799088655 -0.9372544992817469 0.5335739004327051
Ar -0.4177614118070122 -0.872292361811326 -0.4847240073576943
13
algorithm=ga size=13 seed=0 index=24 energy=-43.89940494928523 step=25
Ar 0.1647617216939488 0.9020732929700049 0.574006229351429
Ar 0.6665715010768174 -0.08125153669843291 0.848205470001056
Ar 0.9705479076258705 0.4671508316053522 -0.1008890022270674
Ar -0.4567526493987433 0.04014085106615749 0.9798674185107853
Ar 0.03509093659989328 0.9274802536151652 -0.5557975943230156
Ar 0.8470323285839223 -0.6635716964247452 -0.1121477533703695
Ar -9.610103577493844e-07 -1.534667848177232e-06 1.543740394374867e-07
Ar -0.847037223598565 0.6635713423818108 0.1121483983585083
Ar -0.035083171929827 -0.9274826813553806 0.5558051971265915
Ar 0.4567518620928495 -0.04013569840166697 -0.9798717817638884
Ar -0.9705505386894397 -0.4671552956634361 0.1008887225932043
Ar -0.6665705998839507 0.08125781015226563 -0.848207385197511
Ar -0.1647611131624175 -0.9020759385792524 -0.574008073433758
13
algorithm=ga size=13 seed=0 index=25 energy=-43.89940495862249 step=26
Ar -0.3729901381082128 0.5475327924100131 -0.8552567888016572
Ar 0.7128468795251098 0.6221041725819999 -0.524602966719623
Ar -0.1102076357674367 1.0694187305218 0.1207105228572496
Ar 0.320245231226426 -0.3465477686638632 -0.9735097363454736
Ar -1.01147753545483 0.3772243114186484 0.07062463395682762
Ar -0.7454422962478232 -0.4978910465148982 -0.6056341944975825
Ar 2.556959458330933e-07 5.950525185606374e-07 -2.084108409596547e-06
Ar 0.7454444612358194 0.4978888566277427 0.6056350517747869
Ar 1.011479372647605 -0.3772253669840532 -0.07062814353979791
Ar -0.3202459995029416 0.3465459774323031 0.9735077987119312
Ar 0.1102084272912191 -1.06941937764919 -0.1207053004195977
Ar -0.7128471323307887 -0.6221037045802023 0.5246022078692666
Ar 0.3729861097899098 -0.5475281716528182 0.8552589992620834
13
algorithm=ga size=13 seed=0 index=26 energy=-43.89940495762724 step=27
Ar -0.6691978914649785 -0.09404671861842466 0.8448082969274737
Ar -1.059527583259374 0.03327253541063348 -0.2160233652295996
Ar -0.5273560707291916 0.8951991832277785 0.3014796335798798
Ar -0.5410558101953655 -0.9327583294050311 0.08713151881850058
Ar 0.3200183419070752 0.4618722116622235 0.9244645379086396
Ar 0.3115470977430287 -0.6678724710489036 0.791998666729376
Ar -7.679974007413603e-07 4.811009897580102e-07 1.940038180469589e-07
Ar 0.5273611077282258 -0.8951965978823947 -0.3014744102602797
Ar 1.059527072162641 -0.03326690832427726 0.2160255000170384
Ar -0.3200152262856364 -0.4618728642668645 -0.9244665818103939
Ar 0.5410558943827928 0.9327594730017812 -0.08713913707182877
Ar -0.3115523074613581 0.6678682789396138 -0.7919966114138366
Ar 0.6691961434695304 0.09404172620286716 -0.8448082421987717
13
algorithm=ga size=13 seed=0 index=27 energy=-40.96700194281684 step=28
Ar 0.3923758965962092 -0.8650211422044964 0.6544252680548582
Ar 0.8773582436894893 0.1477698870519689 0.5039825261155423
Ar 0.9262657132501774 -0.6323873602398742 -0.3144010691327407
Ar -0.128089939180918 0.06760380842577889 1.005198440144412
Ar -0.08772634902116484 -1.195310950972992 -0.3152366877202214
Ar -0.7236773267621276 -0.7434535321951435 0.504046514866633
Ar -0.007214733862673361 -0.1467296366354333 -0.06510035690692191
Ar 0.7189102718214955 0.4768687552266699 -0.5643003903679794
Ar 0.06103134013548581 0.8899448826399741 0.2664464532668923
Ar -0.9237770393910635 -0.4308615473997616 -0.5636771043074779
Ar 0.2498571138838523 1.485418556686769 -0.6533348295238354
Ar -0.9268311318022161 0.3442978614911838 0.2608661856660702
Ar -0.4284820593565446 0.6018604181253575 -0.718914950155231
13
algorithm=ga size=13 seed=0 index=28 energy=-40.96700192513487 step=29
Ar 0.4629532934783678 0.6096461039312718 0.6779446293861574
Ar 0.8968836876503168 0.09803899655281174 -0.2295740689454381
Ar 0.159630803112009 0.9552132727384957 -0.3531876006449666
Ar 0.5812377607541086 -0.5102543309752917 0.6581850633627556
Ar -0.6260330255051904 0.8523083067820892 0.4882555854454497
Ar -0.3498337247612177 -0.05885491500159487 1.097562643499445
Ar -0.1589004447517889 -0.005040351199902877 0.02333187436853701
Ar 0.9249598177140469 0.7408035795557892 -1.136388660614251
Ar 0.09076975057587836 0.007842037201957778 -1.026824797454869
Ar -1.182426522128826 -0.1540814393708501 0.3375640675438688
Ar 0.3546569238835102 -0.880022804165342 -0.3812870373475595
Ar -0.4168252996649439 -0.9803512147161879 0.4423379988245381
Ar -0.7370730203636727 -0.6752472413355241 -0.5979196974377505
13
algorithm=ga size=13 seed=0 index=29 energy=-41.04458338043678 step=30
Ar 0.906313709172539 0.481471674773461 -0.352472617104472
Ar 0.5682928655490294 0.1275367757029329 0.6570782411870332
Ar 0.06464544815355075 1.014149003532026 0.1877027043011794
Ar 0.8097577872354853 -0.6269878500011176 -0.1381909354341809
Ar -0.002287667909360168 0.8306424675395248 -0.9270010987123566
Ar 0.4698124720616658 -0.2092121173532508 -1.133495055720021
Ar -0.07221281694202972 0.01178870862645213 -0.2244845119215446
Ar 0.01172071292301605 -0.2970241606733708 1.522717026280014
Ar -0.09068872063015765 -0.7804294583243124 0.5250522602945428
Ar -0.5536226011718075 0.2391755807227342 0.7275081427630211
Ar -0.1624142594252691 -1.005798953650974 -0.5782610760593914
Ar -0.9256109205005157 0.6751769475292776 -0.2444795163140053
Ar -1.023706008516046 -0.4604886184234477 -0.02167356355990226
13
algorithm=ga size=13 seed=0 index=30 energy=-43.89940495612183 step=31
Ar 0.7670991005944616 -0.7260296634608174 -0.2341152171581753
Ar -0.09531621803718669 -0.9718004943110081 0.4657175072057815
Ar -0.2896681069602679 -0.8191080251760626 -0.6446128887853402
Ar 0.704857732034338 -0.2302090589969076 0.787754114425569
Ar 0.3903863474469444 0.01685164153681145 -1.008803638639935
Ar 1.005032001210845 0.3808155366639038 -0.1235540962486845
Ar 9.6931167627357e-07 6.276941276607017e-07 -1.261628240131841e-06
Ar -1.00503389961624 -0.3808088498102867 0.1235459815118602
Ar -0.3903856175855339 -0.01685748222342921 1.008804008918731
Ar 0.09531092778686602 0.9718005482115767 -0.465716977458682
Ar -0.7670994701809482 0.7260321525182329 0.234118394172133
Ar -0.7048537170092523 0.230209122777218 -0.7877574730353712
Ar 0.2896699510042969 0.819103944576638 0.6446215467203539
13
algorithm=ga size=13 seed=0 index=31 energy=-43.89940494421021 step=32
Ar 0.2114483576273842 -0.537808433346431 -0.9145607511897055
Ar -0.20063556637997 -1.063054095804872 0.006432878543032181
Ar -0.8543930050649677 -0.3345767562822624 -0.5730966596291207
Ar 0.8610803378278871 -0.6548100821918194 0.01184413616696216
Ar -0.1967223331977084 0.5238922710829725 -0.9258559155809758
Ar 0.8635002294209518 0.3259705217647858 -0.5643447691989375
Ar 1.219578494983704e-06 -2.661334586023318e-06 3.639036871097909e-07
Ar -0.8635011831045902 -0.3259725443327451 0.5643388876502846
Ar 0.1967153493781398 -0.5238883352328265 0.9258612080281919
Ar -0.8610711862434405 0.6548163705632882 -0.01185092949443847
Ar 0.8543878930631685 0.3345722162632492 0.5731096534842154
Ar 0.2006524952038167 1.06304801566894 -0.006433606232911632
Ar -0.2114626081091604 0.5378135131823037 0.9145555035497194
13
algorithm=ga size=13 seed=0 index=32 energy=-43.89940495458284 step=33
Ar -0.6961323149000872 -0.6442405938158901 0.5203146579808596
Ar 0.1543151162168827 -0.1198153723779316 1.064050435123541
Ar -0.7152607177385787 0.4856569887366873 0.6503161244402086
Ar 0.3803980417063944 -0.9578725855401762 0.3288682096959683
Ar -1.02660523173938 0.0218147211347919 -0.340566069935899
Ar -0.3494585358325929 -0.8703392886181393 -0.5392256550993766
Ar 5.019254507850568e-07 -2.255924371515223e-07 -1.689382474213452e-07
Ar 0.3494546935780724 0.8703379438759332 0.5392304961649874
Ar 1.026603848224686 -0.02181039061491765 0.340563953768199
Ar -0.3803927374274652 0.9578739426373847 -0.328871637089138
Ar 0.7152530674728241 -0.4856614336309245 -0.6503199795015561
Ar 0.6961366137559875 0.6442371372509664 -0.5203103258437543
Ar -0.1543123452421959 0.1198191565546538 -1.06405004076579
13
algorithm=ga size=13 seed=0 index=33 energy=-43.89940495885229 step=34
Ar -0.6847492696219745 -0.751212876684701 -0.3703663692747902
Ar -0.1105190766719867 -0.06643419712886493 -1.07412496333069
Ar 0.4419678915787407 -0.863275116249307 -0.4793688132867457
Ar -0.9334716121467337 0.3579393692643232 -0.4133807027831136
Ar -0.0395221372381773 -0.9313716361995321 0.5489622444480312
Ar -0.8895975784269101 -0.1766272004858979 0.5897426145344762
Ar 1.018180729069734e-06 -5.747467813275319e-07 -1.374078900997123e-07
Ar 0.889598140525252 0.1766205978665047 -0.5897427587994848
Ar 0.0395255386222616 0.931373472503371 -0.5489596125552132
Ar 0.9334750631911173 -0.3579381043748687 0.413379540538473
Ar -0.441975771088799 0.8632710446575609 0.4793683564574184
Ar 0.110520112158326 0.06643833161891945 1.074125915534916
Ar 0.6847476809381549 0.7512168899592755 0.3703646859246146
13
algorithm=ga size=13 seed=0 index=34 energy=-43.8994049469872 step=35
Ar -0.8609423829059049 -0.4122822840940107 -0.5090948214295002
Ar -0.4437938937117739 -0.8839479259901111 0.4382480264497892