13
algorithm=ga size=13 seed=1 index=0 energy=-38.41135949159145 initial_offset=0 step=1
Ar 0.6344487281828719 0.9356008286567633 -0.1837849927821699
Ar -1.191495382939317 1.306213184116542 -0.002059822434671732
Ar 0.8588221569833943 1.046727834474429 0.8861228754696612
Ar -0.2889052436350588 1.280298756521765 -0.6619129570938436
Ar 0.240960652598586 0.1864406338152684 0.5489120869186643
Ar -0.1896671312447266 1.214514912992837 0.4810907766378932
Ar 1.283406724860299 0.01531569728170264 0.8859811171242367
Ar 0.9914594394100308 -0.1087054694660637 -0.2029434829195253
Ar 1.660942583213004 0.7335469697095557 0.1426312496940219
Ar 0.1784248270900495 0.2660230418740199 -0.9092566546670687
Ar -0.03000319555272491 -0.5767253108390399 -0.2256545798270547
Ar 0.6711708530823849 -0.8516813879323952 0.5815688421412029
Ar -0.6009615812178628 0.3689666288514679 -0.1254200023282691
13
algorithm=ga size=13 seed=1 index=1 energy=-37.28263897223515 initial_offset=1 step=2
Ar 1.175910368030447 -0.07651705581822317 0.7455570098323496
Ar 0.1553442013615011 -0.4309291983294815 1.091599182215816
Ar 1.062131635169744 -0.730108139210187 1.644665578477444
Ar -0.6308970533033295 1.188565597790046 0.7640907516083404
Ar 0.2416833762182811 -1.475498441658426 1.440175796219997
Ar 0.369565233908673 -0.354427978272054 0.0111317480249717
Ar 0.9014419556507435 -1.134928244569858 0.6099559242606931
Ar -0.1922075858398455 -1.238181913103244 0.4227208713598438
Ar 0.7157429816096564 0.3403083399190872 1.660401401287985
Ar 0.2538960175793822 1.332739998469294 1.443304969016637
Ar -0.3907412620364949 0.4188955190902304 1.53630528259793
Ar 1.02829393144235 0.529672001380679 -0.1759905740699293
Ar 0.2774107784899909 0.5653422466351675 0.641887936674077
13
algorithm=ga size=13 seed=1 index=2 energy=-37.55753830248772 initial_offset=2 step=3
Ar -0.06102844199738216 -0.3070619732958373 0.6627844613285256
Ar -0.1368969124877943 0.6760950332211444 0.1807817132780937
Ar 0.3088605625657838 0.1906443682561384 1.594013614467748
Ar 0.5277345281525395 -0.116658145915164 -0.2562459545863149
Ar 0.8370144413792935 0.4063610821971939 0.646650881144381
Ar 1.166062912464958 0.135867054716002 -1.127857955883105
Ar -0.6566030133186093 0.5103313207887501 1.15780342691154
Ar -0.673130209435687 0.3801665293838713 -0.7335390238091892
Ar 0.3445672364752617 0.8212445971078626 -0.8099812436490805
Ar -1.051725882857032 0.03050316869146014 0.2495549607571323
Ar 0.2111542049801994 1.199428203751894 1.101273873224703
Ar -0.4221444103089292 -0.6378197838403701 -0.3631125838859526
Ar 0.1022099278287171 -0.1930671036639417 -1.269717666367937
13
algorithm=ga size=13 seed=1 index=3 energy=-41.0172004814683 initial_offset=3 step=4
Ar -1.043600333273304 -0.789997919576053 -0.9379664398883756
Ar 0.06208074725542299 1.021416517359787 -1.403164746459581
Ar -0.5331849487787693 0.9017281185156433 -0.4530454152274737
Ar -0.5153039101777331 -0.1798711817876812 -0.1524922957902429
Ar -1.09229984204098 0.9851025369993474 -1.440105935305453
Ar -1.417709357758205 -0.08266993965236737 -1.738953500773416
Ar 0.4581986452301633 -0.03014943848299835 -1.693755669204725
Ar -1.562023467740878 1.325192530226805 -0.488040639143039
Ar -0.4965062997479425 0.1161451201137888 -1.208662884607896
Ar -0.45650147182851 -0.7126251799570938 -1.901290533479633
Ar 0.08697929370166214 -0.756943703038265 -0.909357715713664
Ar 0.4012297788443128 0.2879645363085233 -0.610143022752384
Ar -1.429735686269209 0.2328466487637051 -0.656490980105392
13
algorithm=ga size=13 seed=1 index=4 energy=-41.0445833874612 initial_offset=4 step=5
Ar 0.8522030335421283 0.03941898422045473 -1.483325481254147
Ar -0.22922867766147 -0.5228535455864496 -0.05353321593193554
Ar 0.7877283043463783 -0.2221943895595891 0.3415890281039192
Ar 0.733525245591596 -0.7628641976365317 -0.6519041054227561
Ar 0.9618693123980059 1.04027470711933 -0.9753466039521824
Ar 0.3531598813026459 0.2435437036224077 -0.5458773381185358
Ar 0.9293012908654688 0.873227139927083 0.1414048524330787
Ar -0.7122762642583353 0.4250796060297242 -0.5170926766058832
Ar 1.435517610607736 0.1107850860832576 -0.5208082867408913
Ar -0.08785853416306726 0.4924429680732506 0.4226567247797424
Ar 1.890420541892315 1.11502258081131 -0.3656757119762977
Ar 0.02535646341204552 1.273887980951616 -0.3900254125020229
Ar -0.04734943026832106 0.7695301497666133 -1.401273950544718
13
algorithm=ga size=13 seed=1 index=5 energy=-43.899404943261 initial_offset=5 step=6
Ar 0.1453715280438032 1.183035920760665 -0.6159739584468578
Ar 0.2804637871638985 0.127039605413658 -1.016634508280441
Ar 0.9332664062801911 0.4991923748586808 -0.1626466393341516
Ar -0.5293328116286345 0.500786360972165 0.9546644617829977
Ar -0.5399571989462448 -0.5246187450867086 -0.5737228730600213
Ar 0.5097097846444737 -0.5561963902890182 -0.1365352503301167
Ar 0.2910954911103935 1.1524604459327 0.5117476422835213
Ar -0.1244290425508049 0.3139166211848187 -0.03098311658234118
Ar -0.3942186857853979 -0.5552121328611617 0.5539969001502583
Ar -1.182120107934252 0.1286409184253331 0.1006745543861235
Ar -0.7585694348135634 1.184032364274038 0.07456557572259456
Ar 0.5162841788054013 0.07755385099989895 0.8080608609049347
Ar -0.7651385029667587 0.5502916614434916 -0.8700269707060152
13
algorithm=ga size=13 seed=1 index=6 energy=-29.17987178368513 initial_offset=6 step=7
Ar 2.252152600043713 -1.497020204260475 -0.8892394505813386
Ar -0.8692591780254033 1.965438157021259 -1.801775861036566
Ar -1.03122435944865 -0.1992337693698108 -0.2239172020188986
Ar -1.283123482349083 -0.1587329668816753 -1.319254398149231
Ar 1.943153503461485 -2.272621468931905 -0.1389846817707459
Ar -1.517399122706116 0.7120593749475634 -0.6529646239287317
Ar -0.05810105321856431 1.211417866953694 -1.61992057980568
Ar -0.4404127004048846 0.4399431998690256 -0.9152995844082886
Ar -2.098228772989079 -0.2317628335581995 -0.5578108938664003
Ar -1.127306750965659 0.8890622711989414 -1.672972046902668
Ar -0.7542013276983009 1.502777636342279 -0.794416319860705
Ar -0.7018600245291909 0.8243438923318251 0.09594180848895316
Ar 2.116430390291645 -1.2129680606897 0.1881716585689548
13
algorithm=ga size=13 seed=1 index=7 energy=-39.16188902344855 initial_offset=7 step=8
Ar 0.08610926994744572 -0.5365370558970263 -0.1684004863828615
Ar 0.4413270042761928 0.3537212878822737 -1.70021543969783
Ar -0.240690952314023 1.015668876966922 -1.060135983666095
Ar 0.5876927534380892 -0.6159490254632352 -1.1454802492057
Ar -0.8564576863276676 -0.402464388189894 0.3890244955472873
Ar 1.192113726898029 -0.4131982310262858 -0.2165146477869387
Ar -0.3671723371601858 -0.07355590695791583 -1.064138845993948
Ar 0.554376277210857 0.3875903882914706 -0.6099032249053218
Ar 0.5414610654740254 0.2167715305840567 0.4855129285150359
Ar -0.8475697978500089 -0.9490012390742862 -0.5913095281784599
Ar -0.392840368218669 0.4827573235496959 -0.08140768811678172
Ar -1.317152923867621 0.06805715335628525 -0.5213462667672669
Ar 1.433784441383962 0.09735073865145379 -1.204911098961848
13
algorithm=ga size=13 seed=1 index=8 energy=-38.27007532078879 initial_offset=8 step=9
Ar 1.256603272620874 0.05473115785111615 -1.037379488538757
Ar -0.5504184079246056 -0.4315958921918167 -0.9793912603908976
Ar 0.1199158447156329 1.453406304011574 -0.7649758069837954
Ar 0.2159650921112637 0.3543884583430947 -0.8125513759019081
Ar -0.4638267875690939 -0.9642877186304437 0.807692898162317
Ar -0.1831612666011728 -0.2080303048224978 0.04614517925214383
Ar 0.7993138190381699 0.9623804693504391 -1.52645793687802
Ar 0.5550542135437145 -0.9929843034903998 0.3493590249104801
Ar 0.1711917738380205 0.8417158782287554 0.1809344670284505
Ar 0.9024664154565714 0.01109871258085554 0.02202746281451786
Ar 0.5004319698616828 -0.7088449887176314 -0.724265379937911
Ar -0.3440285594489113 -1.268511189254712 -0.2635288606043216
Ar 1.083108351614281 0.9919959319225149 -0.4503464541239612
13
algorithm=ga size=13 seed=1 index=9 energy=-38.40539488794648 initial_offset=9 step=10
Ar 0.1894295991342723 0.2974262949888201 0.9298531731934556
Ar -0.3362118799172656 0.479970440928633 -0.7849685223164987
Ar -0.6454487529057137 0.107098205944657 0.2178113871973545
Ar 0.7701143014605683 1.799306610338505 -0.03598857779455804
Ar -0.01910967677066612 -0.7429483873454418 0.5366551877705604
Ar 0.7082318584469773 0.9103809354951851 -0.7133156197752193
Ar -0.01019541073504717 1.030470905386411 0.1213836384322353
Ar -0.7442099408568819 0.9398738212595251 0.9377713003355185
Ar 0.6594156358307547 -1.036883720686763 -0.3039460715554157
Ar 1.041963549585487 0.7945115433874516 0.3754534119607476
Ar -0.3526284992929689 -0.6271153408756632 -0.5514270089426595
Ar 0.4260565064673613 0.02871568129671747 -0.1189702302442104
Ar -1.077577296569063 1.055650126153374 -0.14979326725011
13
algorithm=ga size=13 seed=1 index=10 energy=-43.89940495196247 step=11
Ar 0.1217381840712495 0.880744246043725 -0.6163134403284494
Ar 0.2640530790887099 -0.1670027183951263 -1.035740811413037
Ar 1.011638732656092 0.2527903925215378 -0.2881955769507121
Ar 0.4364061315618571 0.867559401182916 0.4767260464587966
Ar -0.7732032052371269 0.1883295724042623 -0.7328421373910718
Ar -0.4364068735687215 -0.867564364910822 -0.4767164150292312
Ar -0.6666926536919309 0.8277210843877986 0.2019101185868713
Ar 0.6666915674841485 -0.8277221342370998 -0.2019161893327999
Ar 0.7732108763700086 -0.1883293323798193 0.7328360858355347
Ar 8.506200042227223e-08 -1.804044088726751e-07 2.039339570964437e-07
Ar -1.011641654748511 -0.2527904457631158 0.2881873527982197
Ar -0.2640600067922645 0.1670049393948571 1.035739363847629
Ar -0.1217342622555178 -0.8807404598447004 0.6163253989843112
13
algorithm=ga size=13 seed=1 index=11 energy=-41.04458336093651 step=12
Ar 0.02965773664364163 -1.000593800407583 0.4187959099464392
Ar 0.0915623816743865 -0.7656720333529019 -0.6879561568374772
Ar -0.7774443620399665 -0.4005109144348248 -0.07840383972279874
Ar 1.020053625458863 -0.7119945286558053 -0.04315292671745554
Ar -0.4161105439923686 -0.09902090352549282 0.9407180035299378
Ar 0.6983789493333357 -0.2896166335134385 0.9887871583841955
Ar 0.2266024588739233 0.01446167959958008 0.06471140702922396
Ar -1.384189185214648 0.3817144221069908 -0.5876582217402626
Ar -0.3070327912130609 0.2780275010881679 -0.8493585615983432
Ar 0.8069241735375333 0.09822140761289329 -0.843575344997664
Ar -0.6224163665803114 0.6922133423676032 0.1625155082200264
Ar 0.286953424592463 0.7810532795282438 0.8246237376480602
Ar 0.3470604989262084 1.021717181586566 -0.3100466731438818
13
algorithm=ga size=13 seed=1 index=12 energy=-43.89940496107346 step=13
Ar -0.9286744056294403 -0.5364288664181101 0.1420540542175789
Ar -0.8900544795927485 0.6003948408504122 0.1330527171659645
Ar -0.4242985640521596 0.02229139096153675 0.9949102170466134
Ar -0.6997427828996717 0.01723866546576525 -0.8248857351145832
Ar 0.1163604050356464 0.9212670471569399 0.5550670621021632
Ar -0.05387270555846436 0.9181441444740022 -0.5696346082064767
Ar -5.441814318917303e-07 -5.235826279217105e-07 -7.680375710061068e-07
Ar 0.05387288202846274 -0.9181458236679191 0.5696311921849398
Ar 0.6997393053858373 -0.01723900058647487 0.8248893889572411
Ar -0.1163590789917509 -0.9212680842068058 -0.5550679356031664
Ar 0.9286745533356516 0.5364289195854037 -0.1420530715663808
Ar 0.4242985345156771 -0.02229208177124934 -0.9949128756764323
Ar 0.8900568806043924 -0.6003906282608747 -0.1330496374698904
13
algorithm=ga size=13 seed=1 index=13 energy=-41.04458338030283 step=14
Ar -0.4764340864005947 -0.3658634869465296 0.7294703217089527
Ar -0.1981440007714845 0.7278646810461137 0.7063023562383789
Ar 0.5643761857791292 -0.04604104379344978 1.025550001120327
Ar -1.42286052788305 -0.589379315154786 0.1874404985604561
Ar 0.3922219191414863 -0.9863205725532024 0.3658174260027916
Ar -0.8186885117469569 0.2930328243974391 -0.1218954588756352
Ar -0.4563282076811488 -0.7544721529260199 -0.3398692818484462
Ar 0.2353812017949448 0.01838781614063346 -0.00225565948489815
Ar 0.8645994498277545 0.8318131323315611 0.3314507256983859
Ar -0.001006074981661862 1.019843776465545 -0.3706423513000037
Ar 0.5975322752341351 -0.6867272696088424 -0.7373958388214878
Ar -0.1657619092399784 0.102372297053938 -1.014871658715867
Ar 0.8851122869274383 0.435489313547601 -0.7591010802829653
13
algorithm=ga size=13 seed=1 index=14 energy=-41.01720052914325 step=15
Ar -0.3382312722969092 0.7233174216800387 -0.7830432525643818
Ar 1.385320150745553 0.8194414297356427 -0.01634816156753018
Ar 0.2946233870904924 0.9797939001566546 0.1491952072135515
Ar -1.152909309501463 -0.03711699731970147 -0.4588146451825236
Ar 0.6619330709391582 0.2283149894258093 -0.6216233816499402
Ar -0.2141971201058417 -0.3836897600825839 -0.9854827142553034
Ar -0.1898455466056499 0.02364789503071287 0.02800697673604331
Ar -0.1114209388719399 0.3764408161533411 1.047196928492768
Ar -1.012721056202569 -0.2515271317683273 0.6724765072929583
Ar 0.799348942806111 0.01813680977816283 0.4872496860023345
Ar -0.6189205023855796 -0.9712749629097156 -0.1073875067263155
Ar 0.4897722200180774 -0.8031104455771038 -0.2129161409907559
Ar 0.007247940029684144 -0.7223739544912523 0.8014905137240199
13
algorithm=ga size=13 seed=1 index=15 energy=-43.89940492914032 step=16
Ar -0.5699913590990991 0.2835214659736816 -0.8746986078320358
Ar -0.8943213496514384 -0.574339652097607 -0.2017609982749658
Ar -0.9444274588678701 0.4967159490557278 0.1780528254271633
Ar 0.03941841282603705 -0.6764544625691511 -0.8433406506474789
Ar -0.04165757821745397 1.056550101349689 -0.228790425819777
Ar 0.5664233459210333 0.3314855121631073 -0.8600328965979646
Ar 1.049666667141006e-06 -4.817332702471712e-07 -7.124136663647715e-07
Ar -0.5664103142887595 -0.3314861356839031 0.8600412413872591
Ar 0.04164557307447798 -1.056551295844472 0.2287908710433925
Ar -0.03942528142871713 0.6764553526971675 0.8433350734005739
Ar 0.9444244545163134 -0.4967204447991256 -0.178053646391557
Ar 0.8943181629376218 0.5743438302734358 0.2017678639412838
Ar 0.5700023426111852 -0.2835197387852776 0.8746900627777797
13
algorithm=ga size=13 seed=1 index=16 energy=-43.89940493017408 step=17
Ar 0.01205561229110202 0.9966868489216085 0.4205284321024204
Ar -0.5310732641506007 0.1381999828866723 0.9323333290405199
Ar 0.6054340880534818 0.144482929599026 0.8848457749836467
Ar -0.9262091720617067 0.5568974243133005 -0.04873525625436363
Ar 0.9126908297177889 0.5671000884139951 -0.1255680722107711
Ar -0.03392655232940613 0.8219784228109076 -0.7025460000581122
Ar -2.064640755644556e-06 1.540683545401603e-06 1.021732774585518e-06
Ar -0.6054278646993347 -0.1445054984352552 -0.8848441918112814
Ar 0.5310746937513184 -0.1381742955664151 -0.9323289665423093
Ar -0.9126892911510193 -0.5671014765764073 0.1255643658866142
Ar 0.9262029406716538 -0.5569035780824196 0.04873065993356421
Ar 0.03390365619481 -0.8219780374284432 0.7025521199750059
Ar -0.01203361164733616 -0.9966843515401146 -0.42053321677771
13
algorithm=ga size=13 seed=1 index=17 energy=-43.89940496231356 step=18
Ar 0.7407749027284759 -0.1214051461377241 0.7790295404804163
Ar -0.6755840509082374 -0.8299071713180824 -0.1587925329230809
Ar 0.4144826653600182 -0.9916650105014351 0.1231976354685735
Ar -0.3090021459738471 -0.5475860078906983 0.8803636427857403
Ar -1.022991207121965 0.1403272163698662 0.3227555427774947
Ar -0.1476320892581065 0.5782053668016733 0.9023618109687728
Ar 1.611326221438866e-07 -1.698841556785419e-07 -8.506933055039439e-07
Ar 0.1476343812212788 -0.5782033194671 -0.9023634679218202
Ar 1.022991851282114 -0.1403251039698591 -0.3227550562562468
Ar -0.7407765224923469 0.1214004047868804 -0.7790294543273397
Ar 0.6755842926075444 0.8299057459215 0.1587950442655629
Ar -0.4144837772089203 0.9916638230803896 -0.1231992021570293
Ar 0.3090015386313674 0.5475893722087484 -0.8803626524677401
13
algorithm=ga size=13 seed=1 index=18 energy=-43.89940494591417 step=19
Ar -0.8504095586425428 -0.4799129054923453 -0.4656841608517254
Ar -0.5866579958411557 0.6061627232298472 -0.6773227377623101
Ar -0.9779974762803049 0.3052037826343555 0.3474817467546412
Ar 0.08984981949633708 -0.2271808170372013 -1.053892272897356
Ar -0.5433500347191906 -0.7141485522385025 0.6042668128237396
Ar 0.1165980227939998 -1.043179384064548 -0.2618378741270579
Ar -9.659947143266907e-07 3.786739072454943e-07 1.769825205627536e-06
Ar -0.1166150425936987 1.043179845225841 0.2618352887111955
Ar 0.5433505707555792 0.7141494030596562 -0.6042637262300388
Ar 0.8504031737570498 0.4799261306851716 0.4656846715650204
Ar 0.5866664227222516 -0.6061728132359443 0.6773098191480804
Ar 0.9780016532442034 -0.3052019167529583 -0.3474761586504384
Ar -0.08983858869781634 0.2271741253127225 1.053896821691041
13
algorithm=ga size=13 seed=1 index=19 energy=-43.89940493849006 step=20
Ar 0.6202622537593746 0.8835216943771245 -0.07097853567713258
Ar 0.9759254829104704 -0.0554881238995529 0.4635382312951084
Ar 0.136673320436261 0.5695364655426987 0.9095742065108345
Ar 0.849823585253388 -0.05778265595401022 -0.666956346867502
Ar -0.06735581970935953 0.5658317049988196 -0.9196052996153622
Ar -0.5081209457971574 0.9535142880280351 0.05475325117424464
Ar 7.424204246098521e-07 7.556564736196089e-07 5.592734921283618e-07
Ar 0.5081047542355303 -0.9535222841658462 -0.05474735129109324
Ar 0.06736918963380976 -0.5658198338153029 0.9196131924168093
Ar -0.1366765574060058 -0.5695196086318005 -0.9095823371433678
Ar -0.8498273544738496 0.05776248794646069 0.6669571388198886
Ar -0.9759242052441406 0.05548690659183795 -0.463542088188985
Ar -0.6202544460187461 -0.8835217966749352 0.07097537929306355
13
algorithm=ga size=13 seed=1 index=20 energy=-41.04458337480281 step=21
Ar -0.5309076721705533 0.8525249592835269 -0.6031073689159685
Ar 0.5429874036324948 0.8447236663300114 -0.2439681132000747
Ar -0.3029312123426406 0.7446291999644904 0.496723621502391
Ar 0.2842642709192576 0.2669714331504787 -1.182045924491697
Ar -1.116846129187277 0.09875531159343641 0.05835441893846486
Ar 0.6277713366814019 0.1133307252332555 0.6033456306256103
Ar -0.08147685076389011 -0.05115490775332172 -0.2156221456746413
Ar 0.984285017578179 -0.1843218070950097 -0.4179326795496318
Ar 0.03116391594971708 0.3957662241146904 1.499807705884364
Ar 0.2008452322795191 -0.8518071315638894 -0.8850909085191125
Ar -0.3847227011706947 -0.3523831870705977 0.787904529091014
Ar -0.6657610828195017 -0.9560378810731156 -0.1230615698470073
Ar 0.4113284714318493 -0.9209966051240054 0.2246928041752736
13
algorithm=ga size=13 seed=1 index=21 energy=-40.96700189620879 step=22
Ar 0.8769765298623139 -0.3388522184167945 0.4227950939169176
Ar 1.437177738853275 -0.6151802287787497 -0.5018200070261318
Ar 0.345087060318459 -0.8433937503932344 -0.4819529098019855
Ar 0.06289396013379293 0.01508059182473187 1.162990076939498
Ar 0.7159151821994382 0.2296772577314811 -0.549031013551542
Ar 0.5480259257275707 0.7409869087555038 0.4429377373044509
Ar -0.1133694600242772 -0.05712355781995038 0.09850755629101252
Ar -0.794760785087203 -0.7985147317989638 -0.2957431572135966
Ar -0.9709692339444292 -0.2697292897871092 0.7213210771815164
Ar -0.2884083690757264 -0.05241794798208507 -0.9796387864626463
Ar -0.5691467675261708 0.7835570485457346 0.6265771682177972
Ar -0.1628726962637703 0.9131534294264502 -0.4135419948156814
Ar -1.086549085173273 0.2927564886929897 -0.2534008409796047
13
algorithm=ga size=13 seed=1 index=22 energy=-43.8994049517204 step=23
Ar -0.4911302277424169 0.9106551341980319 -0.3160282632813561
Ar -0.116260988053953 0.1420644668453674 -1.066148543197671
Ar -1.001749685201475 -0.1027032597392197 -0.3953763203251872
Ar 0.6263567549688264 0.7533281544778525 -0.4588566185382789
Ar -0.806381700058449 0.3572761380459188 0.6264830086296889
Ar 0.1998475615532583 0.8863288718050323 0.5872507488719922
Ar -1.922525863851668e-07 2.707367964690977e-06 2.368929744519754e-07
Ar -0.1998402317496169 -0.8863327684049691 -0.5872463721187208
Ar 0.116265593160315 -0.1420757931254836 1.066147640533727
Ar -0.6263661990685823 -0.7533254958822151 0.4588486409649517
Ar 1.001749538785911 0.1027089664639359 0.3953759573586402
Ar 0.8063840872687885 -0.357271059292995 -0.6264736274395004
Ar 0.4911256883899474 -0.9106560627592274 0.3160235116487262
13
algorithm=ga size=13 seed=1 index=23 energy=-43.89940494785973 step=24
Ar -0.4033646569192328 -0.2944980464339178 0.9596574584279066
Ar -1.023747130269892 0.285090966431712 0.202591201532135
Ar -0.1480429585900744 0.7889330946938763 0.7252911674778685
Ar -0.7339710545975607 -0.79474079711857 -0.006985206568697258
Ar 0.6829596561724492 0.02048810077790489 0.8387639049778409
Ar 0.3208263798952169 -0.9582816413965551 0.3861826774625728
Ar -3.832527858322035e-07 1.488232990701483e-06 2.532012486723342e-06
Ar 0.7339730862785516 0.7947423500372746 0.006985231591305016
Ar 1.023747627141447 -0.2850957710478271 -0.2025884114178444
Ar -0.3208305440659512 0.9582766788695614 -0.3861947881755206
Ar 0.1480380482248664 -0.7889238392780574 -0.7252964780753461
Ar -0.6829610548131707 -0.0204893220835098 -0.8387585325940698
Ar 0.4033729847961395 0.2944967383151207 -0.9596507566506375
13
algorithm=ga size=13 seed=1 index=24 energy=-43.89940495376136 step=25
Ar 0.671621052860747 0.7416884814960689 0.4113314416195945
Ar 1.058658420824125 -0.1807507899189817 -0.1301857052759475
Ar 0.5151570876784464 0.6330350156985405 -0.7101072572175976
Ar 0.5542118656679759 -0.2863507294647065 0.8838691101429736
Ar 0.3010547058739523 -0.4621521814654913 -0.9306737319613827
Ar 0.3251896106627916 -1.030371758880425 0.05445498357043901
Ar -9.546866198725894e-08 -4.032405796460923e-07 -3.421049126819207e-07
Ar -0.3251933169325219 1.030369430061989 -0.0544572413963608
Ar -0.3010518919090989 0.4621569952293245 0.9306702203249956
Ar -0.5542168746751536 0.286353474791911 -0.8838644248832518
Ar -0.5151544938195569 -0.6330334183010441 0.7101107627440654
Ar -0.6716186413374623 -0.7416868611242491 -0.4113406722828576
Ar -1.058657429425583 0.180742745117646 0.1301928567202443
13
algorithm=ga size=13 seed=1 index=25 energy=-43.89940495074044 step=26
Ar -0.2431068544881957 -0.4003091311994847 0.9752043392763691
Ar -0.8306910748590373 -0.6915465339992194 0.04577020860665627
Ar -0.9085897087445897 0.3649859792489281 0.4600315269329303
Ar 0.2449471483298181 -1.039783430209815 0.1709526590320727
Ar -0.831823875957157 0.1984764628603018 -0.6626081913484115
Ar 0.1189008086769091 0.6697043339249031 0.8412688059126239
Ar -4.167464416349347e-06 9.562954446989238e-07 7.161805148481441e-07
Ar -0.1189021775023376 -0.6697106661874906 -0.8412661730149945
Ar 0.8318243147625874 -0.1984786573569808 0.6626023383470649
Ar -0.2449395250110137 1.03978462920583 -0.1709577877310799
Ar 0.9085883849827291 -0.3649779468992455 -0.4600338205593651
Ar 0.2431092466305099 0.4003087412193676 -0.9752042101099144
Ar 0.8306874806441942 0.6915452630974614 -0.04576041152446456
13
algorithm=ga size=13 seed=1 index=26 energy=-40.9670019336661 step=27
Ar 0.7164853355732484 -0.7951611025042928 0.4594662766729662
Ar 0.7448749362443209 0.3246294997660105 0.6207923222290498
Ar -0.0625961080954721 -0.3001395658631532 1.11197326077897
Ar 0.9398184412579461 -0.07533787093125321 -0.4168258586466607
Ar -0.3989361969499359 -1.105742262447468 0.3924643374038111
Ar 0.8544031986328479 0.6998732125900333 -1.214870867857122
Ar -0.03990587077450695 -0.1527804233064917 0.02979499573187
Ar -1.017370376270981 -0.1667135581564657 0.5173525593657587
Ar -0.3162870022324958 0.6995503164018216 0.6648105095856679
Ar -0.8662339555297898 -0.5740105326060014 -0.5262184211795458
Ar 0.2861154567676906 0.8437380905711985 -0.2701043617826179
Ar -0.04177421961138528 0.06180322745032099 -1.02816407273294
Ar -0.7985936390114807 0.5402909690357394 -0.3404706795692135
13
algorithm=ga size=13 seed=1 index=27 energy=-41.04458328494719 step=28
Ar 0.1539841472142587 -1.043630891038995 0.2541331569621736
Ar -0.7194145146792523 -0.6010592287191429 0.81881904006217
Ar 0.3730812778909615 -0.3639990050750349 1.130311846505769
Ar -0.7437013714695813 -0.6462703316994827 -0.3117093810173655
Ar 0.9805582434618608 -0.2721631873303696 0.1798867596360706
Ar 0.295548096034685 -0.4549356993340142 -0.6904171204822969
Ar -0.06949717100626684 0.02578057310758294 0.2241543817525818
Ar 0.6494859995653447 0.6765250827254286 0.7020479777145677
Ar -1.116651433868343 0.2933340963921024 0.1985518208814087
Ar 0.3480595490244168 0.3334533599951783 -1.474682151149705
Ar -0.2690461890944026 1.083457251686229 0.1191986288955329
Ar 0.5944403098883232 0.6009689095176822 -0.4224449926422071
Ar -0.4768469429620922 0.3685390697728358 -0.7278499671186995
13
algorithm=ga size=13 seed=1 index=28 energy=-43.89940494396974 step=29
Ar -0.4103877064545201 0.9922252460908065 0.1320650506752406
Ar -0.08654043432199988 0.6100713552900531 -0.8892138946996579
Ar -1.000026966664938 0.1642720860750302 -0.3785969000485153
Ar 0.6929125970006931 0.8259938461937457 -0.08936143077263071
Ar -0.7851542443451714 0.10469621667606 0.7368520655394897
Ar -0.2611342485250288 -0.5136578920884994 -0.9156128159612398
Ar -1.62700470781691e-06 1.306916658100207e-06 2.008096572939276e-06
Ar 0.2611546974847173 0.513655112621574 0.9156050635195975
Ar 0.7851454899791356 -0.1046911986047933 -0.7368529995153218
Ar -0.6929110024846361 -0.8259941217486853 0.08936050683284258
Ar 0.4103851777153149 -0.9922285669443758 -0.1320552697032099
Ar 1.000027118054215 -0.1642821318327504 0.3785872014045166
Ar 0.08653114956692971 -0.610061258644824 0.8892214146323145
13
algorithm=ga size=13 seed=1 index=29 energy=-43.89940496287691 step=30
Ar -0.7717416164726189 -0.7438457883613492 -0.1465696835598456
Ar -0.4624980430555252 -0.03119876532846321 -0.9774954299336222
Ar -1.016588152263364 0.3640825251660437 -0.06608454962789044
Ar -0.142382367123055 0.9495788248427607 -0.4983961127358555
Ar -0.6427500098713835 -0.2035066178928685 0.8460686719570489
Ar 0.2537858961275791 -0.843086374592108 -0.6286275356792375
Ar -3.697269588630673e-07 1.826255386132288e-07 -3.718921977720436e-07
Ar -0.2537866039687321 0.843087171106094 0.6286259924211062
Ar 0.6427508440887143 0.2035079581796977 -0.8460675000661985
Ar 0.1423833948161181 -0.9495790808815628 0.4983969080552669
Ar 0.7717421828599499 0.7438450042144522 0.146571350777543
Ar 0.4624983025254293 0.0311979579962425 0.9774950513705571
Ar 1.016586542063847 -0.3640829970744716 0.0660832089133284
13
algorithm=ga size=13 seed=1 index=30 energy=-43.89940494855828 step=31
Ar -0.5227026452402327 -0.6949130066773664 -0.6436244490470184
Ar 0.1864220249197285 -1.05183930377676 0.1710418282841561
Ar 0.5957200811002933 -0.5128863380886367 -0.743261155640712
Ar -0.8035581436380723 -0.5666628195171118 0.4511835211148724
Ar -0.1413067625609157 0.3053793906462845 -1.028176568687849
Ar -1.00609644414937 0.2721460147958097 -0.2899622427449602
Ar 1.150184518124906e-06 -9.369257108320229e-07 -2.057820242192072e-07
Ar -0.5957147093198454 0.5128948474103558 0.7432655012709531
Ar 0.1412972873294974 -0.3053818726961035 1.028175897986691
Ar -0.1864231192022119 1.051842475632466 -0.1710301856272852
Ar 1.006098855553287 -0.2721482884631323 0.2899609072057426
Ar 0.8035475956899906 0.5666635875673373 -0.4511940950961955
Ar 0.5227148293333341 0.6949062500925708 0.6436212467636223
13
algorithm=ga size=13 seed=1 index=31 energy=-43.89940495472846 step=32
Ar 0.9924634330192879 -0.1673586718761764 0.396712062634431
Ar 0.8230696593629191 0.4201932883585873 -0.5624714711632239
Ar 0.4972500358495599 0.8559187727429975 0.436486084618728
Ar 0.6248161350879998 -0.6996645500507697 -0.5389247030647656
Ar 0.09761347805013139 0.005359926110017552 1.077411759405041
Ar 0.1764653779397025 -0.9560432398834218 0.4745709378782141
Ar 6.585233097879832e-07 1.123345383122987e-06 -1.137804750412513e-07
Ar -0.1764661343745909 0.9560423943067284 -0.4745700495280396
Ar -0.09761798178163314 -0.005361614470535784 -1.077413381172719
Ar -0.6248179616194959 0.6996648791412158 0.5389304500107165
Ar -0.4972442003915722 -0.8559211667230645 -0.4364876964226411
Ar -0.8230690716006878 -0.420188869747464 0.5624672002521754
Ar -0.9924634280649308 0.1673577287465024 -0.3967110796674422
13
algorithm=ga size=13 seed=1 index=32 energy=-43.89940495656212 step=33
Ar 0.9346503512734523 -0.2845170052787858 0.464598281351445
Ar -0.02380286715967096 -0.1749287302258618 1.06733652816363
Ar 0.476984337838128 0.7447354432799496 0.6230763371183975
Ar 0.0859530528683405 -1.028687729799079 0.3237117513467334
Ar 0.8962407792897513 0.459362524354576 -0.3951169176467069
Ar 0.6545710012859259 -0.6366733605344361 -0.5801386986562973
Ar -2.422653359476433e-07 5.944207252488349e-07 -4.639307480937908e-07
Ar -0.6545681458809379 0.6366750226206194 0.5801410135660969
Ar -0.896242423433816 -0.4593605241442664 0.3951140737144063
Ar -0.08595659725677315 1.028686344148986 -0.3237093670401945
Ar -0.4769795754147487 -0.7447381953780718 -0.623076944582327
Ar 0.02380372631337466 0.174933482208298 -1.067335796272676
Ar -0.9346533974576885 0.2845121343273458 -0.4645997971317591
13
algorithm=ga size=13 seed=1 index=33 energy=-43.89940496002392 step=34
Ar -0.7427388039108658 -0.6556020750873065 0.4346236066498499
Ar -1.032919275092979 0.2108256015930935 -0.2428973870995629
Ar -0.4892683100992128 -0.6907054583177927 -0.6737342232393283
Ar -0.6081516060856389 0.4158203119379104 0.7922253277231176
Ar 0.2714987133359512 -1.042889298358626 0.09511897657422062
Ar 0.1980241017078098 -0.3590197095526645 1.001132719168878
Ar 1.106545925389902e-06 -3.095611267639786e-07 1.090700740680805e-06
Ar 1.032922241366577 -0.2108232621349982 0.2428970127076391
Ar 0.6081502467168837 -0.4158194654220332 -0.7922281112350295
Ar 0.4892665866588469 0.6907049582787029 0.6737342322988377
Ar -0.198027978373301 0.3590182930519445 -1.001130970584716
Ar -0.2714948461428932 1.042888228969543 -0.09511904838509673
Ar 0.7427378233729327 0.6556021846033538 -0.4346232252795657
13
algorithm=ga size=13 seed=1 index=34 energy=-43.89940495015617 step=35
Ar 0.5131698769795102 -0.7226856411343078 0.6202924164913447