38
algorithm=ga size=38 seed=0 index=0 energy=-132.067198640951 initial_offset=0 step=1
Ar 0.06187241130173839 -0.8727794121646241 -1.656012742564599
Ar -1.744092673026499 1.82967269413854 1.649950748542369
Ar 0.01790087413383556 0.2796492483442315 0.6400241945941381
Ar 2.696326386902253 2.003377312585353 -2.924393596770001
Ar 1.513699585925234 -0.2430057870974379 -0.06017264986545847
Ar -0.6174104590691608 1.814668769967392 0.03365113013144731
Ar -0.9248667568289649 -0.5680720976989336 -1.145621517642397
Ar -0.8566105977041738 0.8430653596851093 0.4352328796432325
Ar -0.1368344787044777 -0.801596952409046 0.543304502424496
Ar 1.074784854228312 -0.2138848772871105 1.903495916876198
Ar -0.0309021914257273 0.06487085312654864 -1.094100810242333
Ar 0.4456439187035764 -0.1824099038603925 -0.173833269596631
Ar 0.2055426491073659 0.4524791352520781 2.33501283920594
Ar -0.6491081130178379 -0.08859787186253883 -0.155428750713235
Ar 0.9305229491838242 -0.6857610406555013 -0.9708294274678542
Ar 0.8504455942265153 -0.3754356492234621 0.8289513614214646
Ar -0.764002250185171 1.730225228509441 1.154697310858952
Ar -1.995459701651673 2.257374483794726 -2.727829055164118
Ar 0.8287738595442118 -1.167213797579371 0.04948133681545712
Ar 0.7841450665442666 -0.01545613412828888 -1.833887290344157
Ar -0.1002322752564265 -1.009643585616975 -0.5675187802507358
Ar 0.7303773496133114 0.6555457078322167 1.353668679350896
Ar 0.004867581816828638 0.840871847393683 -0.3035143552772206
Ar -1.447807687977676 0.8023294106345107 1.356364476343204
Ar 0.1665541730431895 1.354627279248776 0.6692958058237188
Ar -0.8913510456022012 0.1168482712014784 2.097507934829004
Ar 0.9676064557068418 0.6732544418837577 0.2697873585535621
Ar -0.9244174627099482 -0.1129336481905731 0.9891706463473769
Ar -0.3527498348204665 0.7911967100250291 1.463322366408819
Ar 1.71330208149898 0.2535733918099743 0.9864148102427583
Ar 2.337519769896039 2.829861473724324 -2.253829572058253
Ar 2.421484098051562 3.22460689329073 3.068599842554174
Ar -0.945895242444684 1.272997225427116 2.226624277700834
Ar 0.9904125838341997 0.4621734991291258 -0.833296021022937
Ar 1.920189097441122 1.790212615469306 -2.139309643580454
Ar 0.01582960200464289 -0.2886677706453573 1.552278239268148
Ar -1.658963865702826 1.580331862621609 0.5443787544085219
Ar -2.852085421061619 1.693319429674879 -3.183891084601783
38
algorithm=ga size=38 seed=0 index=1 energy=-163.8772041978179 initial_offset=1 step=2
Ar 0.3063780283496422 -0.06736666137404114 -0.6363646708683692
Ar 1.250356484090839 -0.3144839523187249 0.7975187818987984
Ar 0.8936740176522134 -0.8611070942260848 -0.1430695346262942
Ar -0.6325141576174614 0.3138406363666067 1.017140830536275
Ar -0.415759969121948 0.7387593769844035 -0.8018125002934188
Ar -0.453872908507733 -1.783598136974012 0.8857420574794154
Ar -0.8132494715252923 -1.778143722220241 -0.1485064197036003
Ar -0.919723766434158 -0.3557297915529507 1.812729901689369
Ar 1.164298369892419 0.7898983258494647 0.6567257071526809
Ar -1.185080080621375 -1.401533901351843 1.649691481154315
Ar -0.1261656789044912 -1.172969195933231 1.754433069109766
Ar 1.114687299893044 0.3241084089794712 1.674480026230486
Ar -1.411287577739112 0.8029473093475719 0.4548262518168489
Ar -1.519795487087017 0.5690459290638845 1.567331552999014
Ar 0.3735359986866067 -1.817096416197898 0.1510794528326164
Ar -0.1942394302443649 -0.900141007662714 -0.1495971902360158
Ar -0.7847719240270138 1.367057529545449 1.235144276608031
Ar 0.3620057690297929 -0.947887134044018 0.7929375121799478
Ar -1.593691652392884 -0.2306481541956462 0.7597556570486175
Ar 0.5154672878762144 1.698614504130362 0.528284710023783
Ar -1.521540038880487 -1.406090474498207 0.6268751373900047
Ar -0.3389598169372165 1.052149322028715 0.2788836213662208
Ar 0.1663216891312657 -0.1662966541331458 1.518362046664406
Ar 0.9797685681410033 -0.9077051008119374 1.685476954671606
Ar 1.313370372399716 0.1372710367252206 -0.2098689199888884
Ar -0.4644042441030113 0.6316462342852697 2.041354833266066
Ar 0.2475636105427115 0.9005661204889643 1.233955012903203
Ar -1.146304378885605 1.439495426213588 -0.3890725215858814
Ar 0.5655516241664861 -1.906207845975783 1.291236600889948
Ar -1.490104809948969 0.3628017522279637 -0.5822179697635972
Ar 1.346807123254051 -1.416489187890269 0.6988994816462897
Ar -1.317224166867167 -0.7534639718125826 -0.2053493447474364
Ar -0.6570021551756603 0.05550282189463965 0.006430697138681982
Ar 0.5708486343402061 0.9364625388710236 -0.2824498549671501
Ar 0.3156431382898283 0.1009507255455677 0.4457731818313153
Ar -0.6945286968133491 -0.3375527540605452 -1.013944399923566
Ar 1.972581670290799 -0.7260724194422166 0.0719540838751145
Ar -0.6658179706930134 -0.7364205754660152 0.8158366416896187
38
algorithm=ga size=38 seed=0 index=2 energy=-158.0786359351173 initial_offset=2 step=3
Ar -1.541158632679789 -0.6342818276720809 -0.1853095482759557
Ar -1.60424928012012 0.4472827782024528 0.1165600697142161
Ar -1.096968901981755 -1.668580882225161 -0.3922894349006713
Ar -0.03411955863838181 0.1824076851032144 -0.8384179238828677
Ar -0.7014169968848187 0.9258607356327028 -0.3059756849168665
Ar 0.3480723461407104 1.952708438647565 1.274913350547852
Ar -0.5953173102032818 -1.651784288342085 -1.383357637821586
Ar -0.7632071614544094 0.6257685989987148 0.8178095401324627
Ar -0.5894620024144941 2.006664430791903 -0.3938309819997158
Ar 0.01523216723120497 -1.608290014783285 -0.4270902714481105
Ar -1.262632653321052 1.529333634297559 0.4213479416057752
Ar 1.14842148075629 0.5965995902073661 -0.297260898782625
Ar 0.9049872361488432 1.28755830383547 0.5254893797834177
Ar -0.1651600377811914 1.473568373561791 0.457808452650021
Ar 1.416541816235584 -0.4508917504650115 0.006637286838948524
Ar -0.6568113974175136 -0.07921916730964283 0.0308616101529896
Ar -2.175050126916747 -1.494730996991734 -0.4502147553018853
Ar 0.2115806456835781 0.8200965891976416 1.264485967017355
Ar -0.611737385012036 2.417624605991183 0.7061107913988401
Ar 0.3251383027879813 -0.5625577620419167 -0.121386392858563
Ar -0.5551536087879926 -1.089755630790914 0.3620740423138106
Ar -1.606047119950274 -1.420760514344971 0.5639281140961995
Ar -1.168989370865639 0.1383636315675568 -0.9214769689512381
Ar -0.05956122678410984 -0.2501874088921991 0.9273235007769569
Ar 0.1954200866009733 0.5060952870464746 0.1855913510001951
Ar 0.3291939056007742 1.338950309589306 -0.495440413486464
Ar 0.7247454274542033 0.7875135559144851 -1.350124091012781
Ar -0.6844783274190354 1.542144265245923 1.416443718690496
Ar -1.633718800132713 -2.08051952978213 -1.259993140314059
Ar 0.4879576357063405 -1.984049640461651 -1.347888918850682
Ar 0.9923481552933117 -0.2197575094064008 -0.9833124814890645
Ar -1.526605591944224 -0.9781336016211443 -1.22931647005787
Ar 0.2547914296780752 -0.906153732945993 -1.354436133928967
Ar -0.5915462292613282 -0.7731609584471312 -0.7390277654736344
Ar 1.002407950114623 0.1800208887493529 0.8012133779066101
Ar 1.032464186922452 -1.271411612393882 -0.6457385340664612
Ar -0.3775646919372893 1.111917116943737 -1.323058661401104
Ar -1.252891293548382 -0.3798387864337548 0.8740263438239504
38
algorithm=ga size=38 seed=0 index=3 energy=-164.2849891051546 initial_offset=3 step=4
Ar -1.079934501118292 -0.8446140765719035 0.5658697377028473
Ar 0.5645009474907481 -0.7767269171296372 -0.5825309181742824
Ar 0.5911917448506011 -0.8532309501783345 1.313902282811142
Ar -0.8173816546127817 0.2365997408160167 0.4261242365186151
Ar -0.2538490386916463 -0.1151576104748826 -0.4152918275987142
Ar 2.098788650974413 -1.042132165846723 0.3220585440545063
Ar 0.2501082889067776 -0.2526765448208396 -1.467250465421783
Ar 2.346236398426739 -0.5102123894486509 -0.6888358001375754
Ar 1.525082994482195 -1.270241319262303 -0.5969546571576055
Ar 0.4742300201343285 -1.843079759947179 0.8394535812376164
Ar -0.558528485753267 -1.854940171066575 0.2962361051841925
Ar 1.434575234956086 -2.016871557535291 0.2351619469682447
Ar -0.07791932423108892 0.8150143072263811 1.013364637986064
Ar -0.98719208195422 0.7050991977666459 -0.530843183416757
Ar 0.7144939399572173 0.2758356476816424 -0.6102399617522571
Ar 0.7600707045740148 1.351497790084543 -0.7259028201732728
Ar 1.498516447953865 -0.2039376584911018 -0.09880329464043267
Ar -0.8352367547976202 -0.03286793224824411 -1.348787064378526
Ar 1.010045588660055 -1.035259687028363 0.3427031175163832
Ar -0.4181555973773832 1.654072790962483 -0.6683596951157733
Ar -0.8491805423283491 1.356447401659029 0.3614165215499786
Ar 0.02822114384354652 0.8651266794166578 -0.05047883427974201
Ar 1.516449489537756 -1.449732169787548 1.203208594654505
Ar 0.7034920215769555 0.2285108818697996 1.493978044422452
Ar 0.9503505856082938 0.6363986656838501 -1.600777955405572
Ar 0.4259607800197515 -1.783444488448006 -0.2495231524362662
Ar -1.021301088209984 1.114729874020163 -1.543132602828192
Ar -0.293519802512705 -0.2582711845876509 1.211582282153787
Ar 1.715603355447069 0.6489392798748912 -0.7640310261040937
Ar -0.07236983333432831 0.7438672517145778 -1.15958737308526
Ar 0.5088767269146474 -0.02441565009061875 0.4374119592606497
Ar 1.140865605206767 0.8293000786190955 0.2269793438162711
Ar -0.03885937864028355 -0.918306791474399 0.3484047045583296
Ar -1.307007472939165 -0.3696386787976113 -0.3988156066076292
Ar 1.36939801184343 -0.3420444620906725 -1.212717263833416
Ar 1.509642667499842 -0.3134105710766998 0.9816328359425877
Ar -0.4087681325146129 -1.358474276589295 1.294703508456379
Ar -0.5002403858807929 -1.15540801947297 -0.6078153159999211
38
algorithm=ga size=38 seed=0 index=4 energy=-160.4050385029046 initial_offset=4 step=5
Ar 1.67891398198378 0.0525144598107508 1.396223843170905
Ar -2.180233540348674 0.6530347416791751 -0.1356020603409275
Ar 1.226499934149279 -0.8840016898100258 1.784607683732447
Ar 0.01344907147143859 0.8466207782629365 0.02168738627723157
Ar 0.2199419270760116 1.472176855946927 2.084140906431999
Ar 0.006482708788557012 2.266888310083503 1.264095209683016
Ar -1.453415238721915 0.6459202432911302 1.651323207968915
Ar 1.438021450624652 0.4067618201092472 -0.382480321884788
Ar 0.1083797100443053 0.1701855650498676 0.922280289956143
Ar 1.875641764708913 -0.2593604939810405 0.3762825134327814
Ar -0.3475066497131436 0.5544926560230136 1.850796697054248
Ar 0.1690728007265897 -0.562746859289776 1.696298641767549
Ar -0.4764182657309182 0.1490089023259301 -0.8292232526981126
Ar -0.7340261147782233 0.7826861713971557 0.8609714305468884
Ar -1.470707295327187 -0.1775132487443837 -0.443470038343231
Ar -0.6320356974597749 -1.331863306190866 1.47399692067912
Ar 0.7359051215645802 0.4679639518383327 1.735300134111877
Ar -1.651163528872859 1.308520262995632 0.7120133026433731
Ar 0.4137332739567521 -0.1572072630673904 -0.07251745384875434
Ar -0.5804530806197226 1.74315011166663 0.434887732394825
Ar 0.2439702882601684 1.227263113314182 1.030671477708084
Ar -0.1494020497153925 -0.8415774912733129 0.6533265158904895
Ar -1.259763542972371 -0.8741241428610869 0.4606241036297442
Ar 1.313364451740357 -0.6788089239071071 -0.4559924914958622
Ar 0.3635928843537637 -0.6051208677821381 -1.048781732345791
Ar 0.5587226167419534 -1.503408664303697 1.127597669040737
Ar 0.5245648727373151 0.5246172685780076 -0.94052836295368
Ar 1.04801684268665 0.5622040509714948 0.6136043072153666
Ar -0.6394800643249476 -0.02494548384622228 0.2039447252365068
Ar 0.5207302408820803 -1.277361032174543 -0.04528748343646585
Ar -1.605943307418671 0.1839339452613476 0.6462539179702945
Ar -1.093175856118238 0.8801960185267879 -0.1714736017087344
Ar -0.8376303642789302 -0.2507912723727863 1.288985345139883
Ar -0.488767319845312 -0.8927867555014286 -0.4000543856737881
Ar 1.508095653470081 -1.333210491898957 0.4796565356519585
Ar 0.9051262115186316 -0.5145327837473856 0.8134825320603101
Ar -2.321349512461362 -0.4874758337786411 0.1751797953813956
Ar -0.7862327217782145 1.567410438005406 1.570421389360873
38
algorithm=ga size=38 seed=0 index=5 energy=-156.4605094328558 initial_offset=5 step=6
Ar 1.627795165522953 0.8959540966823294 -0.09266899953112367
Ar -0.3190042263734509 -1.930623286871766 -0.6805194038361535
Ar 0.1296452625219442 -1.536281507234028 -1.707234470316985
Ar 1.283719927429513 0.2075559219987117 -0.8947535507290585
Ar 0.2153638916323794 0.6492724391460162 0.9924449613924813
Ar 0.6074855920810224 -0.4753129781227842 -0.4183513312151665
Ar -0.0740543058178612 -1.144692285262407 0.06158977723385171
Ar -0.1422969160886659 1.172937954049844 -1.570117631648088
Ar 0.02342573471141072 1.973947992512503 -0.7406158550449271
Ar 0.6888488554011908 1.113682889530329 -0.8639163970737317
Ar 0.4388648416542655 -2.100805057855776 0.1914640975260442
Ar -0.2673250352253118 -0.8280144011572702 -0.9594999181506522
Ar 1.572155447007561 -0.8638380387961273 -0.7489842964442666
Ar 1.257289666368249 0.3179455039594582 1.032957517117555
Ar -0.3336666549890654 -0.0603400535855103 -0.08225071353729579
Ar 0.7349504910335418 -0.602493438872465 -1.487970564438464
Ar -1.000541689987787 1.658723457187935 -1.047929120945802
Ar 1.329783238804687 -0.7902318887608315 1.184409499048579
Ar -0.8037905014428227 1.812109726649446 0.06052493867534211
Ar -0.3410281793177251 1.606848221228475 1.127155821241426
Ar 0.09152209982662227 0.1937668024691071 -1.078593778820873
Ar 0.312850891628709 -1.352000168270691 1.062681246393999
Ar 0.4866952444260432 -0.3592233630510853 0.6433405988921391
Ar -0.5508501879054685 -0.5637684443566646 0.8875960684870798
Ar 0.2268199868317206 1.484636147991733 0.2223443607343943
Ar 1.130101248240134 1.892435102252599 -0.238290251689497
Ar 1.247171384115491 -1.92795221845664 1.02232386794831
Ar 1.502627687471591 -0.2010077488399793 0.1327261245046001
Ar -0.3469057153606075 0.9636094887993072 -0.4947837567918482
Ar 0.667499045793463 -1.496194982575173 -0.7545902433518737
Ar 1.123889496092773 1.357762730919138 0.786895720517918
Ar -1.452317440163591 0.9747865439796759 -0.3207001092510828
Ar 1.065113191776721 -1.20681765586051 0.2157926086966835
Ar -0.7371370298820854 0.7717145640410816 0.4975041139452407
Ar -0.9803325123927654 0.4976952466421733 -1.229911241920066
Ar 0.7767935271806921 0.5277063370593207 -1.835226910908637
Ar 0.6212223978178482 0.5001822291742832 0.005699610326361001
Ar -0.962038607179651 -1.515495057919521 -1.484743022063551
38
algorithm=ga size=38 seed=0 index=6 energy=-149.6305592650983 initial_offset=6 step=7
Ar 0.4402604630566576 -0.9447040207972603 -0.5583273256209688
Ar -1.225312489173424 1.049512934110121 0.7511233607013076
Ar 0.2430398743098576 -0.4257721519237458 1.152409582716215
Ar -0.7694941453816612 -0.7454547488241061 0.8939039209970535
Ar -1.014953000836456 1.880760173311912 1.463077740787127
Ar 1.347303847688675 -1.392899075173203 -1.02596718982639
Ar 1.231548096355779 0.1044124013776969 1.14849512011482
Ar -1.262614041851285 0.02932584239733087 0.2468416720118652
Ar 1.515448609465486 -0.4227590917495777 -0.5443114035370422
Ar 1.238500370909028 -1.411042099093213 0.08239958460760066
Ar 0.8540483671494934 -0.4349621697695655 0.2894693041131174
Ar 1.898563576363973 -0.5572400545223302 0.5180427453585263
Ar 0.848857666787999 -0.3912513234206518 2.04838964462074
Ar -0.4814241930505502 0.3052233385450069 0.932961509392002
Ar -1.797207770766157 1.091948311556719 1.69516547789918
Ar 2.241089507964547 -1.220885124770748 -0.3312386734068637
Ar 0.8693218946220944 -0.4403311588674074 -1.436481231869848
Ar 1.049235303289414 1.209546934967684 1.068881371808849
Ar -1.873739608584551 -0.7380810073044035 0.8178437416781176
Ar -1.275124244741902 -1.638006594258346 0.5084724208698899
Ar -1.43445082941866 0.104179280487033 1.364354910918792
Ar 0.452167071954214 0.5282374725928772 0.4917285880258488
Ar -0.5036671488919361 -0.1899469301792653 1.912460239045098
Ar 1.483330372907876 0.4567875349539275 0.1343879279656714
Ar 0.5706064527946934 0.1978326703846055 -0.5540111162139919
Ar 0.185823287256084 -1.283515974777727 0.4944491530039599
Ar -0.699400030918861 0.8947750887972118 1.785908502072174
Ar 3.170915411599226 2.044826039054007 -2.909432556995074
Ar 0.3364170269302952 0.5528914886970294 1.626102613792598
Ar -0.1962878734238763 -0.2867007751739354 0.07931269409580768
Ar -1.211253787395052 1.498571968371742 2.538565193528282
Ar -0.4627606130902331 0.7872953788729972 -0.04752638091976165
Ar -1.371996476539247 0.3554819065888624 2.445690320028997
Ar -0.1361047825304068 1.342037654597277 0.9406746656509359
Ar -1.631307502131004 -0.8813477696320355 -0.2477297142149329
Ar 1.112911173891193 -1.069017097916304 1.141592281576082
Ar -0.5973464688469545 -1.232511495188013 -0.2638920875773544
Ar 1.931021899100679 -0.5564657903228476 1.665070874122836
38
algorithm=ga size=38 seed=0 index=7 energy=-157.0370214955816 initial_offset=7 step=8
Ar 0.08472084525972548 1.245195579031119 0.6409253547619052
Ar -0.001120152295007986 -0.4030168880750865 1.505734179494988
Ar -1.444823054773083 2.150505400857591 0.6873969867412848
Ar 0.3034895846883967 -0.4350888664969037 -0.6956909532189544
Ar -0.6401763466597947 -0.1701172179997815 -0.1668589426209475
Ar -0.603774726150064 1.938778581426194 0.02407335136350973
Ar 0.1411236679871033 1.379863641570605 -0.5502258563342044
Ar -1.183847193958925 0.3468678134532348 -1.62371035017076
Ar -1.44273260365106 0.2638371465852532 0.5288934322832006
Ar 0.8496869202478686 0.5511428961796977 -0.9139611305931614
Ar -0.6989196600947296 -0.5694584758574507 -1.155997360920961
Ar -1.014708983838299 1.34088466286685 -0.9406297384270628
Ar -1.196200075869449 -1.622938601214033 0.3467194574248759
Ar -0.8218503820074374 -1.109915607134122 1.730752845424197
Ar -0.70117169055726 0.8870867843689479 -0.03234560655011183
Ar 0.7580237966218442 -1.272604899863816 -0.1231581403853267
Ar 0.4805940640863557 2.143409700085705 0.192756599685351
Ar -0.3612293565347857 -1.201068851301294 -0.2236689488548866
Ar -0.8727512932293271 -0.6669660953893226 0.7481225127357407
Ar -1.548483972235306 2.21148766032138 -0.4580241878002512
Ar -0.1290170306614296 0.8088735574986781 1.665733954880313
Ar -1.48057369145835 0.3715314827949437 -0.5789696952275086
Ar -0.157371293008493 -1.474954110222713 0.8555190655913877
Ar -0.3058186933744236 0.4686006344115439 -0.9852305533182255
Ar 1.045793313625167 1.122577632472463 0.0921649588313561
Ar -0.3772306737181738 2.123991734941972 1.082584356395004
Ar -1.284923852147207 -1.438080048449056 -0.7764162891943016
Ar 1.153800626471831 -0.149001750941863 -0.009068601526236605
Ar 0.6892992921834304 0.3513526514376096 0.9464472779927604
Ar -1.59989019031886 -0.6497916172915097 -0.08622084551016801
Ar -1.691261958474954 1.259636157343172 0.07241536670198739
Ar 0.2111041472253297 -0.5351932401181225 0.4410114694986031
Ar -1.792926130371038 -0.5035352402822926 -1.171660861691869
Ar -0.9801187862126293 1.182498873844564 0.9813026187189982
Ar -0.3928241944650265 0.2854671841452643 0.7834128037199489
Ar 0.2506194090673364 0.4237692082614175 -0.04700554561765075
Ar -1.042527847024201 0.04816225277214106 1.596342183136362
Ar 2.747501190619206 -2.345511769670352 2.910051029720938
38
algorithm=ga size=38 seed=0 index=8 energy=-160.8527583247656 initial_offset=8 step=9
Ar -0.1579254956334496 1.111472195820329 -0.6433715734098391
Ar 0.9086513242636518 0.9721054850476493 -0.7443936170427622
Ar -0.1363198176665626 -0.5858152364291747 -1.294694835125428
Ar 0.2041437251113705 -1.627856098080255 -1.235692374022173
Ar -1.208088594885504 -0.1640270825191838 0.4754160368835556
Ar -0.7619702047195719 -1.1612575251412 0.2636842788127181
Ar 0.4269024042670477 0.430923247397534 1.197457021540305
Ar -1.630170845458148 -0.8167826129554806 -0.3809338167384973
Ar -1.704171763694882 -1.485936050934545 -1.327112515221579
Ar -0.6923076695913388 -0.2623315252435861 -0.4364236670553944
Ar 0.526448005448012 -0.934929020934415 -2.06006370059287
Ar -0.7668226205588896 -1.315570975576826 -0.8441580580739169
Ar -1.271170859735648 0.8984022981295763 0.7350291775688106
Ar -1.16091551798024 1.929720430200888 1.140497072236675
Ar 1.812229043723219 -1.053252973390926 -0.5693243682539667
Ar -1.164196855756827 0.7138593358900253 -0.3696321084320268
Ar 0.1043246922059953 -0.9798873364509187 -0.344074819959149
Ar -0.3022760045540106 0.5638996585185242 0.2828947745323199
Ar -0.5541720482622067 0.3910799160504428 -1.324118096083527
Ar 0.5535050942284252 0.192615498083362 -1.583514678869921
Ar -1.415904933695726 -1.921593480902369 -0.2455300411435029
Ar -0.3741770854051306 -0.2152729775622001 -2.257284042459292
Ar 0.8864677630901689 -0.7341023373324118 -1.030725286255206
Ar 0.9273319232445241 0.4414532267737706 0.2541655193852175
Ar -0.6323782640868092 -1.293282304393368 -1.938061173664403
Ar -1.221073685241664 -0.4846688863342636 -1.409396223642903
Ar -0.2805084203267534 1.261246306112429 1.134655773531542
Ar 0.006846373387856469 -0.4015855511678692 0.5545066885557429
Ar 1.481841897615269 0.05071214288158429 -0.6213527094405042
Ar -0.1978145473608725 -2.012918022547739 -0.2348901254263409
Ar 0.9106083782050584 -1.684450292109242 -0.3802767862424178
Ar 0.4148543174762845 1.397082353600056 0.2616916869996104
Ar 0.304922440544006 0.07599607375567895 -0.5260667629795331
Ar -0.6811951838177427 1.625323037139961 0.1682125907200719
Ar 1.295107926619051 -1.636017563314453 -1.442143552397824
Ar -0.6173403658554206 0.1998797385440666 1.309089057454899
Ar 1.007739804675039 -0.6440700636067648 0.09842048165772517
Ar 0.3392486332717878 -1.466026878320545 0.5871484752025171
38
algorithm=ga size=38 seed=0 index=9 energy=-134.609843312323 initial_offset=9 step=10
Ar 1.894709649915805 -1.486091174875101 0.5137534228247173
Ar 1.664669806657969 1.657867521209002 0.860055474844678
Ar 0.3369254652248763 1.173736129822712 -1.746112056077109
Ar 0.8639669856957763 -0.4111056872981072 -0.6348292529433546
Ar -3.282714258931224 2.205219008710259 3.185169932317878
Ar 1.546498816338142 -0.4742239223171053 0.2619677621999315
Ar -1.395540906042502 1.302220843677945 -0.7854134321056129
Ar 1.557084651214754 0.8121222607594503 1.622366359339338
Ar 0.9640479831749191 1.759217612096334 1.734529506066389
Ar 0.4292015573697551 1.72813717833319 -0.8087378897222556
Ar -0.8822871126715315 0.7192956014325681 0.07117073323985654
Ar 1.20787696034247 -1.032986910667736 -1.468827720390643
Ar -0.5315119932649607 1.871319902416162 -1.360814155883367
Ar -0.6815176037529999 -0.5277996374696537 0.4267790395254786
Ar 1.180598575500148 -1.006018132229538 1.195672951868074
Ar 1.957769587551331 -0.607872840313547 -0.7710410721707759
Ar 1.682826156821313 0.4088697120440023 -0.5052595825457249
Ar -0.3928678194420877 1.390416596666068 0.8655171470591682
Ar 0.4533373688501301 -0.672307267869351 0.3910147946110372
Ar -2.894377689772819 -3.205059437279874 -2.133810217739403
Ar 1.763786427482953 0.5988077668965858 0.5743378674251695
Ar 0.6443183133856624 0.623021219163698 -0.8555846615426362
Ar 1.262552272565621 -1.374843348139504 -0.3822474367025027
Ar -2.990384782852942 -2.510083638652571 2.713980740459188
Ar 1.20043944183436 1.312454643197326 -0.1075389717484626
Ar 0.138680368644084 1.074375325996609 -0.009302699294177215
Ar -0.0735415313744841 0.3166077394180062 0.7630303644680624
Ar -0.3985815383495511 0.8849205389683155 -0.9348878863314571
Ar 0.9139519123256035 0.03633379948949179 1.177921455112079
Ar 0.7596555334433028 -1.743207472451535 0.5109511659753069
Ar 1.979533298391916 -0.2310679956699432 1.262157306238419
Ar 1.359567071425544 0.09316547632921261 -1.499904983094526
Ar 1.408774106781592 1.262759535746147 -1.226211305600767
Ar -0.590342042924021 1.810233307861277 -0.2394418099572992
Ar -3.226944215596276 -2.154080493883019 -1.922235606658415
Ar 0.8314189809988553 0.3081006067235272 0.1532101821223889
Ar -0.1053022271998525 0.01845910321450644 -0.3213590429698455
Ar 0.7279828770539256 1.085724040064485 0.902493231142091
38
algorithm=ga size=38 seed=0 index=10 energy=-162.8889102190422 step=11
Ar 0.8714842966842706 1.345069039927441 1.44101019460452
Ar -0.07503183918137636 1.752948872531692 0.9591744384160692
Ar -0.8012464740663989 -0.003273974787115347 1.72651230093669
Ar -1.147324659323166 0.9209257545225844 1.190248371588377
Ar 0.06686513980198733 1.751034081829498 -0.1928162898508164
Ar -0.04304736079755271 0.6941303870024408 1.305109761657024
Ar 1.671267465583315 0.8511789723573506 0.4732571163063717
Ar 0.5886616657387139 1.033887446843769 0.4402850508750336
Ar 0.9813682062751292 0.2913468769124639 1.124229674720541
Ar -0.4855868079436674 0.9536471857531101 0.3448270421470698
Ar 1.214598408157521 1.04375753353535 -0.5101547372556019
Ar -0.7868399553536943 1.205619499300155 -0.6888080824517906
Ar 0.2294924276540548 -0.337060660650631 1.59053262179819
Ar -1.545839303022085 0.7517056708397856 0.07847019570710237
Ar 1.831209785143952 -0.2324486758798334 0.6144852850237399
Ar 0.1967489975880641 0.6962323160109817 -0.507012361340172
Ar 1.919914567153299 0.1728668295501026 -0.4267164661920901
Ar -1.062012008094256 -0.06234889816033692 0.6741016447543189
Ar 0.003840436625544211 -0.04829980652089832 0.4899769522464156
Ar 0.9422421678621629 0.1039273521272209 0.03078514870259976
Ar 0.8559473890592093 -0.7251651671939068 0.7697410949822835
Ar -0.7239039090059169 0.1837730173667954 -0.323747652506567
Ar 0.9901043852276945 0.05291064372416052 -1.062653427362561
Ar -1.503989992588321 0.4161949359501044 -1.030369575632974
Ar -0.388719797131241 0.3604020746432984 -1.351926541620277
Ar -0.2143412011091319 -1.066356839342827 0.9127473021019693
Ar 1.400415541358304 -0.8241422310909677 -0.2267241143241166
Ar 0.1313864537799695 -0.3844007344554667 -0.5933893602685192
Ar -1.655288395042514 -0.3781394668959335 -0.2345065914899508
Ar -0.6685361409123383 -0.8295847683263923 -0.02210231256751834
Ar 0.3859100743928385 -1.261409188688441 -0.02172885714668629
Ar -0.9353063224702902 -0.546461038083899 -1.069381846005156
Ar 0.7988928183366203 -1.092009636792462 -1.087801184424649
Ar -0.01885437492170624 -0.6371646301641619 -1.665207564801131
Ar -0.5249767975968235 -1.890770988591988 0.09959351617554757
Ar -0.2507156288032535 -1.400112832995828 -0.8813096714822972
Ar -1.330405465588236 -1.463273540806802 -0.6232569136675769
Ar -0.918383793470705 -1.399135411300364 -1.74547416235339
38
algorithm=ga size=38 seed=0 index=11 energy=-160.7284473818975 step=12
Ar -0.7021518966192132 -0.0185505951359176 1.85955261786653
Ar -0.7182381132981972 -1.078242346929982 1.487284855118419
Ar 0.2596230632250736 -0.563397065192451 1.557740321915631
Ar -0.04700791209520904 0.7095521788688054 1.272932815167712
Ar -1.530535843808951 -0.4149499639065997 1.140299417246744
Ar -1.168893739427204 0.617229973202286 1.060184812678569
Ar 0.9888438885078679 0.222122914375619 1.380783096016015
Ar -0.4458056399077355 -0.2143282097934885 0.8316323004826307
Ar 1.109379303339961 1.125340666930348 0.7627464814538505
Ar 0.004159264795270087 -1.219389738843209 0.655243567114553
Ar -1.035755962389519 -1.077748082032645 0.4212205220957893
Ar 0.911505519966899 -0.6617518196573731 0.65248129095799
Ar -0.5102822954358588 0.707614641772025 0.2157138821155732
Ar 0.4650036798754388 0.2917370830848064 0.4271897589781444
Ar -1.250076878929085 -0.04887275280802445 0.1434503260352425
Ar 0.2877450158812928 1.413265673630707 0.07129634265089704
Ar 1.575131570229747 0.1585861795284452 0.4334962761183541
Ar -2.04447609708762 -0.7786438521360864 0.08939686121269054
Ar -1.474313472701045 0.935734133039012 -0.264336954404216
Ar 2.121739431021467 1.062161897980057 0.1547922355325074
Ar -0.1859739038390614 -0.4560631135961399 -0.1643139762963655
Ar 1.154652842107648 0.8684868063540798 -0.3037665022002313
Ar -0.5348480424922218 1.308600424965654 -0.7326016827546529
Ar -0.4006856553315947 -1.555856297202025 -0.3274175804942063
Ar 1.742434333933115 -0.8386792932600272 -0.06819043255776347
Ar -1.904370164350669 0.004221435058735293 -0.7324328522795214
Ar 0.179124008516765 0.5184249290793926 -0.569339696597257
Ar 0.6386315634679092 -1.234174148659879 -0.2724649852875123
Ar 0.9257871582713227 -0.2172023459629725 -0.3998869710056756
Ar -1.152254637693532 -0.810056470121887 -0.6389582822117843
Ar -0.80667833225449 0.2127249142564691 -0.8300682776031789
Ar 1.92925555819933 0.1659692084965221 -0.6208683495136021
Ar 0.5391642281739286 1.423965302549774 -1.045899585717671
Ar 0.1592956215442891 -0.3604533937086252 -1.186418561163711
Ar 0.9873656201506888 0.4142320522175248 -1.300747598183871
Ar -0.1096632574586085 0.6708973981126639 -1.590826134078674
Ar 0.4967303000046623 -0.04988857863001861 -2.188082424634155
Ar -0.4535601260928964 -1.232619745925617 -1.380816933773839
38
algorithm=ga size=38 seed=0 index=12 energy=-164.3203794879172 step=13
Ar 1.082524754819339 0.6377332332666206 -0.300481673209526
Ar 0.5950629985109044 1.544855629417177 1.260709456635012
Ar 1.360631186091726 0.7530751609356369 0.8203659611302101
Ar 1.866024706643107 0.011243635597512 0.1722818008745483
Ar 1.351684110144632 -1.236992771402479 -1.154510663371775
Ar 1.464969445812828 -0.9954068859554398 -0.04595781007168271
Ar 1.513625593919556 -0.1901018063984639 -0.8640916267759582
Ar 1.012965870667151 1.649774879170589 0.1997980231520807
Ar 0.7106636880113614 -1.770048951493467 -0.4406887678984114
Ar 0.4627348042251491 -0.6102019743744641 1.375246359320856
Ar 0.06745446656361477 0.2190605499788918 -0.3035422473029811
Ar 0.2137833653845046 1.283308363080438 -0.5187932010871195
Ar 0.5456965530180689 0.2449928830740456 -1.250649467557867
Ar 0.4319282026008507 -0.8257271066387903 -1.635828515702079
Ar 0.4872921115275838 0.4523893973537698 1.471521335932145
Ar 0.3550064552257009 0.8482167071082203 0.4837700612147127
Ar 0.7987473423939691 -0.1697186620026561 0.4096873942172894
Ar 0.5875024707893935 -0.6734810047142029 -0.5776678915544092
Ar 0.5132182727304719 -1.233592001095213 0.4799939844789732
Ar -0.455365271133829 -1.061266120354513 1.025645810660236
Ar -0.09454203345873761 1.840148408633939 0.4109852508680406
Ar -0.2553796098338943 -0.009664006147163824 0.6949661792912873
Ar -0.3056748067396905 -0.7807874889496028 -0.0322111163370159