55
algorithm=ga size=55 seed=0 index=0 energy=-168.3674159978241 initial_offset=0 step=1
Ar 0.5051845671968902 -1.061597929054251 -3.003135211967285
Ar -2.539263513293056 2.120481501919083 2.574750228269433
Ar -0.2384646964608737 1.781423927440992 1.272614111695383
Ar 0.8979024714819213 2.166646951396949 -2.84759442968591
Ar 2.667661828711435 -2.111133963730697 1.505434515919162
Ar -1.886663737024249 1.52856015650724 0.5121943910826114
Ar -0.4326515422500474 -0.7302392536170316 -2.479483478025931
Ar -1.816204853971484 0.8241320538294017 1.386782490880655
Ar 0.8480732282785263 -0.3341914721334437 2.474158380172552
Ar 1.796964590016189 0.256918372733727 2.548599668136376
Ar 0.8922706998293624 -1.713748318849503 -2.218182767730643
Ar 0.5631162350714998 -0.3548478510852651 -2.150733385284298
Ar -0.7339056354884371 2.02212326857451 2.269097275456267
Ar -1.147995835980637 1.281476619622434 -0.2858316745766973
Ar 1.240412722980682 -0.9666782994094356 -1.506988933858973
Ar 2.102668816056124 -1.159253197442044 1.441234306034643
Ar -1.702563970769901 2.567304694488143 2.013606278645491
Ar -0.6776588322495501 2.175610033341718 -3.758383829252101
Ar -0.9453149381764941 -1.487591745233107 -1.814961270631131
Ar 1.462744690618501 -1.698352092801139 -3.155068660743417
Ar -0.1691716739442247 -1.814546261372795 -2.538601945137183
Ar 0.4486963356250244 -0.2961984966298228 1.438384849876695
Ar -1.820383699353296 2.596210049340799 0.8897303132842385
Ar -1.708654579138774 1.436517096713673 2.330597837181986
Ar -0.9114849583453203 2.102539482648589 0.4341743923996637
Ar 0.1637357984377011 1.352918698419841 2.206832935819247
Ar 1.810359722581409 -0.853905657541503 2.488080917431551
Ar 0.07026607069009466 0.7298529422842565 1.250811289694257
Ar -0.8125086669509791 0.9618700084864614 1.875828039797305
Ar 2.779108902839336 -1.337177570872975 2.308165316012654
Ar 1.275074722266922 3.112319785698685 -3.317890905935429
Ar 2.756379004340459 3.657731892684057 3.476489688902762
Ar -1.507438348626041 2.247396841823104 3.053156548577511
Ar 1.489795392741272 -0.7645742138204966 -2.583454101776639
Ar 0.3832394728099139 3.157319758921925 -2.648583144390708
Ar 0.945686017518052 0.6236578725015229 1.917708972786908
Ar -2.382208263885102 1.812062773016438 1.500366914565604
Ar -1.303970480968297 2.382716519805885 -2.850476907638909
Ar 1.540756940057697 -0.2331916620765563 1.585290953789759
Ar -0.5860461901315281 3.15707617292696 -3.206253023838688
Ar -0.05741607699447469 0.260263526600605 2.260225238243466
Ar 0.1181413745508445 -1.20862458752207 -1.632711542264175
Ar 1.985864485153163 -1.618030015985087 -2.105229949817224
Ar -0.8918294600345353 1.009233693283813 0.7601110333217637
Ar 1.557030538719178 0.05300705408877179 -1.842060875231805
Ar -1.304706971582009 1.781295242243481 1.384115560307018
Ar 2.590847488201335 -0.2819265057743392 1.952077766846907
Ar 0.3101385947765377 2.666243691675801 -3.652612675732267
Ar -0.2044095132443335 2.214238523551175 -2.745789249924811
Ar 1.028672277969391 -1.201652963763918 1.782015424648614
Ar -2.069342984017198 -1.542523882335983 -1.919020965172112
Ar 1.801862852667441 -1.918528462797804 2.192140035316546
Ar 2.727337674828408 -2.420398531128042 2.575294318721045
Ar -1.519675226824031 -0.6228217277515778 -2.236585012861905
Ar -0.799577467366633 2.740923602122981 1.375932527408236
55
algorithm=ga size=55 seed=0 index=1 energy=-252.5364489867771 initial_offset=1 step=2
Ar 0.04429350516341737 0.8119598189011141 -1.115454189828514
Ar 2.073725645509764 -1.223982522706156 0.2724558987930959
Ar 0.8085979823652691 0.1808258169897287 -0.574299488986904
Ar -2.35521115099905 -0.2130693905791419 0.1997695382806768
Ar -0.7103202765829507 1.242923073817744 0.5179226349621202
Ar 0.2141680924946403 -1.393386347738817 0.7229524557785918
Ar -0.5522888136980295 -0.6973071732871771 1.141860305122214
Ar -1.530645453416997 -0.3312095391847668 0.9091844929645641
Ar 1.775290220921986 0.7329073196985098 -0.3517186057320866
Ar -1.425291075951084 -1.302937960718695 1.430405333599101
Ar 0.3343442753324629 -0.2547862597237711 0.5742153593123004
Ar 1.942275506587722 0.4243278525930737 1.812017589729929
Ar -1.950935370265847 0.2934498258194867 -0.7408482471459642
Ar -1.066777764011419 0.5914858380717544 1.359322923778335
Ar 0.4098527802916251 -0.7619719401868935 1.604088389532706
Ar 1.081533633116865 0.04131618022416456 1.289922017077418
Ar -0.2289754983665419 0.06545288789841069 1.87603401711258
Ar 1.455026820718361 -0.7865012243534795 1.912607566768375
Ar -0.8374191203434658 -1.711709846478129 0.6085295305134082
Ar 0.4174274681412553 1.577896277678243 0.5158277765078999
Ar -0.3231416762308991 -1.633023704895161 1.642876452594022
Ar 0.8379035197586908 1.304700116538927 -0.4766569823718211
Ar -1.249810895187194 -0.3368293873271202 1.957426258788912
Ar 1.073176701743949 -1.777210776708052 0.1245556500932586
Ar 1.936479460286594 -1.567605271731487 1.299407029964746
Ar -2.186884833151101 0.435734531335926 1.28245709998236
Ar 1.541886712358152 1.546769730098014 0.393336225893849
Ar -0.9274594318705029 0.6807750919349003 -0.4938423851138439
Ar 0.8660391551829747 -1.749413070763964 1.525555801728384
Ar -1.322063567252018 -0.3413838192688036 -0.1573717424216389
Ar 0.5833958098060477 -0.8757741956542772 -0.2391891881493867
Ar -2.096359832090049 -0.8446074851470747 -0.7077791286476363
Ar -1.629665237398803 0.6181873526445245 0.3402886043936514
Ar 0.986256886001005 0.6164716463635486 0.3982036189334299
Ar 1.994246403297661 0.563205543798614 0.7211657731247024
Ar -0.2227939077081715 -0.1362240517671045 -0.6342800674477389
Ar 0.709805525893804 -1.722737180141912 -0.9584540117453979
Ar -1.797120339116022 -1.207383267208434 0.3429561921049435
Ar -0.07727561431431887 -1.856031449454305 -0.2060997546380356
Ar 0.04873326521825574 0.7038327891567584 -0.03152911017274163
Ar 1.107543257514377 1.131312514110594 1.342017446539822
Ar -0.6527731115289341 0.1418086240632255 0.4844551956501751
Ar -1.12116743437612 -0.4679733237416538 -1.194088921551803
Ar -0.4451156807396007 -0.8639250612931048 0.08576783852129155
Ar 2.161159880562745 1.448000813583924 1.345818433639477
Ar 2.093161064418349 -0.4517183560511398 1.081090250116208
Ar 1.732052000471422 -0.1107726638587009 -1.059850885033576
Ar -0.2214373400747151 -1.134805782343788 -1.015120565761197
Ar -0.2565888184569388 1.651613987339241 -0.4241069197231905
Ar 1.551632265927634 -1.103121733511892 -0.6659751631003068
Ar 0.7266731500450663 -0.6298952514379115 -1.290771565473724
Ar 1.162016558196285 -0.9398173506933694 0.822341249228015
Ar -1.146841816738208 -1.417204670388515 -0.5097302081054869
Ar 1.537032085853336 -0.2681471336963431 0.08593346387101669
Ar 0.1072999457050957 0.6886196533612055 1.071825762898467
55
algorithm=ga size=55 seed=0 index=2 energy=-205.7965801784181 initial_offset=2 step=3
Ar -0.5749804338039556 -0.956391744330357 1.339025308478837
Ar -1.897018342926331 0.4113781567709107 1.158547404081376
Ar -1.80353009584479 -1.351436536256473 -1.053719616614176
Ar 0.6476808390587762 0.8969865396721124 -1.02093347863468
Ar -0.9793169829245156 1.021007589137383 1.441269459688521
Ar 0.2199022035714089 1.918503719748222 0.3952333097362855
Ar -0.891071854140606 -1.549343130857862 -0.4482423793365695
Ar -0.111382252251158 1.656040763701162 1.428591286247618
Ar -0.7761036085347899 1.966065791324132 -0.6331089246264141
Ar 1.385484336057331 -2.931575906414536 -2.408179077406702
Ar -1.856878866902444 1.552655473667963 1.015752883956566
Ar 1.424177702892267 0.2934139474478707 -0.4314332513109134
Ar 0.1044993541151485 0.2688857254380444 1.53155259229433
Ar -0.8134614562870138 1.807978223797896 0.5815550511170604
Ar 0.9879362405252946 0.2184935585310184 0.671535587090927
Ar -1.198877484380793 0.8953740505258023 -0.7024070272799349
Ar -1.413992484062489 -1.581435884247751 1.735505740525067
Ar -0.1874113687348239 2.506528708084761 2.134330606324384
Ar -0.7065076779732449 2.80207017320854 0.05251717529857501
Ar -0.1137470898208074 -0.6954675658531998 -0.4778924894445562
Ar -1.141684444006057 -1.754697723454615 0.6777640519439305
Ar -2.21735355242296 -1.674108172526217 0.9492312106696178
Ar -1.693507724938565 -0.06991162692134757 0.1772370788045514
Ar -0.1514388282071417 0.8371850337217016 0.6728259697183139
Ar 0.3709701054472358 0.2507729299718761 -0.2057801536717766
Ar -0.3139532132726682 1.301131658668746 -1.394151665384975
Ar 0.6755659375103776 -0.2265484133470806 -1.128135112756231
Ar -1.1047722626505 2.103220550363377 1.622003489075895
Ar -3.689300268399057 -1.535380667951854 -3.673875314439394
Ar 1.756975870143684 -2.207873170958125 -3.180977983080942
Ar 0.8872327938115721 1.160061411301892 0.02428380073905776
Ar -2.298058384820731 -0.4240245331969935 -0.6657656553116383
Ar 0.6829482648719858 -2.189127864985259 -2.866360734192718
Ar -1.186040348594634 -0.4906502267642036 -0.7182806954394437
Ar 0.07147617683152793 -0.3688343846184777 0.6160918043053482
Ar 2.395712096704659 -2.461877090802525 -2.298565808215068
Ar 0.2681532705595176 0.465855219873766 -1.952552301918221
Ar -0.8676203725644417 0.04816235711691489 1.001368793303283
Ar 2.711548199830796 2.551884605272409 2.070948656523675
Ar -1.6928743585654 1.784908109679327 -0.06810660731349766
Ar -1.655514005945837 -0.7248659872525954 1.067110322535568
Ar -0.6541806305392711 0.1732909271719733 -0.05415757419579482
Ar 0.7962382843557183 1.181110335067793 1.12309561245542
Ar -0.3269354754149387 2.671900521368739 1.053895454909911
Ar 3.398185965450408 -3.277001980946762 2.872486530335834
Ar -0.2092132716516262 1.132420630526186 -0.3189056444845922
Ar 1.474697885721417 -1.836438242778142 -2.15658852989145
Ar -1.547389541909942 2.586891221449894 0.7339067064680644
Ar -1.846107532399706 -1.157130403447877 0.03623818012170927
Ar 2.492313403751901 -2.826773727209873 3.358912699785304
Ar 0.9282547715837465 -0.659193515233694 -0.06946965122101373
Ar -0.3370985033130698 0.250123571527292 -1.065741658625715
Ar -1.270015963184772 0.8899337701828491 0.3900821812776101
Ar 0.3846496236438131 1.938798523733516 -0.7064378869770362
Ar -0.870149090521436 -0.7930186632196207 0.3077167393399322
55
algorithm=ga size=55 seed=0 index=3 energy=-244.2031074467838 initial_offset=3 step=4
Ar -1.114518580490372 -0.9051856303365461 1.841599121498397
Ar 0.8769257080024319 -2.36903418750053 -0.3189975431796837
Ar -0.2322790957698633 -1.306463185033938 1.129558285491071
Ar -0.9177524401092809 -0.3887456822655511 -0.2393711377311219
Ar 0.5832179035072026 0.2238974591515722 1.208027728268709
Ar 2.532346773295371 -0.4464464682145083 0.5027143083740361
Ar 0.7917882329011197 -1.299934228697725 -2.258305382421214
Ar 2.276192291608963 -0.7347955248533268 -0.5638269965036556
Ar 1.883739707711476 0.1948285997703372 -0.137932804372358
Ar 1.294189462882592 -1.795729519016176 0.5548877068213088
Ar -0.5390234722574065 -1.354252328967273 0.06277633411400993
Ar 2.336365093537989 -1.502379858061939 0.2415838003811133
Ar -0.3807824077034271 1.785137676043194 0.9422084965332225
Ar -0.6341188166971995 1.343680866476602 -0.02003052701011497
Ar 0.8244506007515777 0.0592838237723266 0.1618957216586146
Ar 1.253950910425037 1.66500801304389 -1.092433570570399
Ar 1.159895498558621 -0.4734620649774927 -0.7214446007764845
Ar -0.110486914237667 0.4178194328600309 -0.3537223476606878
Ar 1.511276975924708 -1.530235844923484 -0.5191590136288641
Ar 0.2607613904300214 0.9738630613577235 0.5029843126960526
Ar -1.73620478095799 0.1408767877810324 0.4300598431400573
Ar 0.3380143370890574 1.403201282590242 -0.5297948244109313
Ar 1.88048034161226 -1.073425382493687 1.198991792497336
Ar -0.3475651344993313 0.8231708503347512 1.461997976341217
Ar 1.279632032815719 0.7545447855375992 -1.762795448037045
Ar -0.1317855893163975 -1.76564071580839 -1.775114329574782
Ar -0.7427456834550503 -0.02068883099838299 -1.232442641841047
Ar -1.07793087462786 -0.6773971039523726 0.7789884470175104
Ar 2.099512326585422 1.006186900258694 -0.8755479277171683
Ar 0.280973644509626 0.3203700382970447 -1.360913335254209
Ar 1.522850282203368 -0.7731747329181764 0.2283635874115114
Ar 1.937135945726928 0.01284947910755341 -1.281755170990429
Ar -0.04776066246290482 -1.944983426426593 -0.6780651270411001
Ar -0.6766132324032474 0.3593181273968013 0.5472483106330084
Ar 1.74275223004517 -1.094637109268223 -1.483985874949428
Ar 0.782158862726777 -0.8543345756447127 1.001202956670884
Ar -0.3121378066653085 -0.2747651198062206 1.461955137995909
Ar -0.7354121814511135 -1.152681181451461 -1.045152752491611
Ar 0.1898277465332197 -2.08728893720319 0.4827019249400919
Ar 1.619157837487071 0.005220797291987669 0.957746141756309
Ar 3.349056072384535 2.365828229722823 1.800649448108797
Ar 1.069925244564995 0.6255180591247892 -0.7120545103366536
Ar 0.08182284743286683 -0.5555069873812913 -0.6901218916177542
Ar -0.04251848582411628 -0.4702897688884058 0.4166260864221718
Ar 0.5811137922780606 -1.233776744780758 -0.05331202602458014
Ar -0.5405338970560222 1.067554878737553 -1.121549195925801
Ar -1.26864211645459 0.5981116100785123 -0.4477574440099749
Ar 1.022136679244307 -0.3339843698225796 -1.787345727979853
Ar 0.6793623271299282 -1.318300077679267 -1.18029590781441
Ar -0.02078623300197347 -0.6698609447505343 -1.77501364521152
Ar 0.3648053565836225 1.369203165453837 -1.65702451955819
Ar -1.296864942243381 0.1952543594707291 1.452927075290863
Ar 2.506357236340096 -1.773123264197094 -0.8607186482372259
Ar 1.958613965796612 -2.459155566310344 -0.1289891451953528
Ar -1.321166860070709 1.153907856209588 0.8502397308625615
55
algorithm=ga size=55 seed=0 index=4 energy=-235.5902893674124 initial_offset=4 step=5
Ar 1.735773876175787 -0.1446305399836908 1.420054230642001
Ar -1.562570582243441 1.077633433775946 0.5704772708525297
Ar 1.170215627898182 -1.090045359567666 1.613444992351516
Ar -0.1150727585549368 2.155509093825245 0.835760389176998
Ar -0.1524850812432445 1.761880621288131 2.763764203857364
Ar -1.175006361837725 1.75087305824089 2.279644953129692
Ar -1.05968385901546 0.1399495032343145 0.802421862300262
Ar 1.409635636974868 0.6097743015901916 -1.712443265258163
Ar 0.785465447800925 0.3641765210302694 1.372070834695763
Ar 0.9639951807997736 -0.2793936139155673 -0.3390254160452397
Ar -0.6651727672611446 0.7927410720933532 2.538986171799204
Ar 0.4442985301502399 -1.109625232504068 2.477823525355167
Ar 0.1895787750555756 1.358167214222871 -0.03820913275405352
Ar -1.237905386069164 0.8700183440753526 1.603441699841141
Ar -0.7344528978604024 -0.3253382760987479 -0.1401535761705017
Ar -0.4053422342312948 -1.382488981568463 1.831557803190229
Ar 1.926081904390919 -1.013554603843405 0.7700735187378019
Ar -1.69190685272682 1.353507664689058 -0.4819267310999931
Ar 1.841383378094683 -0.9026567821264889 -0.3531438290723188
Ar -0.8397714149324776 1.835242701262307 0.07729222187927538
Ar -0.4829219830977391 2.520479392966785 1.861909160613918
Ar -0.1016430466873702 -0.1531421074329372 2.51955370842014
Ar -0.9325643687766525 -0.3890125460555354 1.800229669489883
Ar 1.089373844095249 -0.394615099640263 -1.405076884150509
Ar 1.857170585190321 0.1422127117040283 -0.7934769067309458
Ar 0.5676363133607245 -2.009610177190039 1.868220034289718
Ar 0.7528283932238251 0.004840083859925618 -2.387974194849618
Ar 0.1695013674102398 -0.8985140602277064 0.0431094122359816
Ar 0.007179373979396145 0.05084483700241342 0.6207595840770879
Ar 0.03790176404501984 -0.5687396672688769 -0.9978528464005915
Ar -1.719210548209224 0.2196054176393021 -0.1340282297746299
Ar -0.8100235225225378 0.7833844361015918 -0.1770039714365497
Ar 0.4367543599543634 0.827229718696151 2.320319039871096
Ar 0.8544991432159065 -1.278060243097203 -0.7980780636366742
Ar 0.2162040968044586 -0.5366553840122225 1.545059090133721
Ar 0.9896080427095829 -0.1830050489447545 2.270834612539842
Ar -0.7467495033439137 0.2188417317724133 -1.109583899089546
Ar -0.2496575957054607 1.472819122567391 1.734819966688635
Ar 0.3146704690035891 0.3969514672074193 -1.454237675645968
Ar -0.5878382501109103 -0.8468713992597304 0.8531273123953064
Ar -0.2620812253382787 0.4109836656435807 1.59148405115809
Ar -0.4597393158491134 1.066431979901527 0.7771419653567546
Ar 0.9116044539370608 0.5784213338175865 0.3254462316704884
Ar -1.596799799019462 2.652341937758148 1.749668536950938
Ar 1.102290437352384 -1.483139477527123 0.2350279170397796
Ar 0.3197251489971238 -1.445806548593426 0.9759424785800788
Ar -1.856791981757999 2.124994161960812 0.3867026828620002
Ar 1.831437085647511 -0.004506187219477662 0.3124381013546217
Ar 2.4343057793427 3.644704212126344 1.54425493854081
Ar 0.936440910523459 -0.5051820923857538 0.7217401466146504
Ar -1.107696668983017 1.871018315188007 1.169314579368465
Ar 0.5772928619917348 1.129477428072774 -2.232217483345134
Ar 1.004928141250044 0.8440489184913071 -0.7179163594011656
Ar 0.5758357404760314 1.352415902088836 1.025094163193479
Ar 0.1094309748091951 0.3293882632068013 -0.4034040103879652
55
algorithm=ga size=55 seed=0 index=5 energy=-226.5486260141562 initial_offset=5 step=6
Ar 0.254396628914447 2.356346065065295 1.367379016501714
Ar -0.7600680161845589 -1.358139278769247 -0.2487984102038895
Ar -1.384545244718001 -2.040998216590856 -0.7813812644151318
Ar 3.490254782703044 1.592024912915733 -2.408525717429336
Ar -1.392995390378176 1.528765940910647 1.130718216838736
Ar 1.040709193198633 -0.8469848871051335 -1.201860318344173
Ar 0.9195109786303227 -1.40224939524316 -0.1598204090156619
Ar 0.2593017179922013 2.963511817722708 -0.4470881087250697
Ar -0.2676218884313545 2.952258219112572 0.5414788874548868
Ar 3.147845145028216 2.361997277584878 -3.150019775059404
Ar 0.4299055916690685 -2.383752787931288 -0.1085149501326626
Ar -0.2414301954272121 -2.087060006145783 -0.9193097733896085
Ar 0.04035341990237883 -1.577888945175794 0.5215332089559181
Ar 1.233761051727033 0.4835258219004079 0.2251114311403814
Ar 0.4603614203488707 -0.04804109391435698 -0.4660140789941688
Ar 0.1123216735687232 -1.073903666493248 -0.7338987480537509
Ar -0.3148169134227441 2.584733640115508 -1.336997685337533
Ar 1.038107934064574 0.1037806645175635 1.324343082993023
Ar -0.4589904558116747 1.907500033744754 0.6897895195278716
Ar -0.6165473464052073 0.3551287373380536 -0.02153357654485325
Ar 0.2226761022981372 -1.428818289840474 -1.754432876870299
Ar 1.029421273567533 -1.970167834860937 0.7741652021542703
Ar 0.8762701784135235 -0.5537178240656752 0.4486033541159329
Ar -0.1793750802729808 -0.5947759037379722 0.2139094836827641
Ar 0.04346725734094362 1.208662177044844 -0.01841072184696144
Ar -0.8778875826183734 2.514744377839581 1.465559948708191
Ar 1.831655875437423 -1.302748022986636 0.3823822852093795
Ar 1.578437302322473 -0.4406592622534585 -0.3406860049361723
Ar -0.5296733492557827 2.196929154011857 -0.3280521793629712
Ar -0.6799969505292224 -2.369225604966674 0.08253437329051252
Ar -0.4067961202484731 1.523096000974267 1.736323586855705
Ar 0.4184373636422472 1.906978348096168 -0.8038065508538924
Ar 0.8821607978122128 -1.971995446037131 -1.059953292817262
Ar -1.526251318959028 0.4810222658237073 0.658556501519087
Ar -1.276115536371211 -0.5212913290107015 0.2317347507848009
Ar 0.0977073552821633 -0.3325465458460323 -1.522533785648645
Ar 1.851997845414104 -1.43335916233392 -0.7417110917285864
Ar -1.676043444918032 -1.581959829076631 0.2451970005809943
Ar -1.12348121085421 1.308274241064492 0.02015867060916603
Ar 0.2152489715222319 -0.6729059077835677 1.274047145473069
Ar 1.895614329695194 -0.2659605954682229 0.7351480601531997
Ar 0.2600636311458226 0.2894380201907849 0.6108194612528007
Ar -0.5584787652787699 0.899132788021176 0.8753571062281882
Ar -2.426774620503 -1.683375524957172 -0.5646027644386791
Ar -1.65510437450067 -0.9140920872412056 -0.7146846846306558
Ar -0.6993817316782026 -0.1424291168954828 1.06436732092809
Ar -0.8067768585543658 -1.263564677739524 -1.369014531971741
Ar -1.10781275351192 0.6283708331990782 1.75658704729678
Ar 0.5113015920098417 2.165556593546322 0.2828017524900398
Ar 1.285616227242221 -1.029319271980749 1.315602465572605
Ar 0.4568380923220386 1.297965027595603 1.017006070844656
Ar -0.7036769050158357 -0.3752862369665969 -0.7711832380087679
Ar -1.604459207361563 0.2590347559997323 -0.462481822864091
Ar 1.532326337813495 -2.30697620437627 -0.1608647157178276
Ar 0.03514318146963635 0.4531420791622201 1.673636628663181
55
algorithm=ga size=55 seed=0 index=6 energy=-211.4835728504316 initial_offset=6 step=7
Ar 0.03079767380557634 -0.3993003561258262 -0.6185297927544718
Ar -1.710073721030694 3.122277039463094 2.164742118936688
Ar 1.137125258736306 -1.28476474552245 0.7428152171893762
Ar -1.073948128257707 -1.864669107892108 0.7122449115179212
Ar -3.53458168614046 3.351604712334686 2.486778740449905
Ar 1.625309930577374 -1.808990738445754 -1.457104875314346
Ar 1.085322806019813 -0.2640477257844238 0.9409011127297595
Ar -0.6211144490728708 -0.9224490877703159 0.9289156950448277
Ar 1.965809983755351 -0.202584654328531 -0.7408460473780787
Ar 1.367335747865609 -2.306782662931425 -0.4537238152711875
Ar 0.6276017945978645 -1.550216153196089 -0.18729093234069
Ar 1.995652208668149 -0.614388193573859 0.2713587315476388
Ar 2.174334651768913 -0.9739512108356048 2.392122085946276
Ar -0.4669726472366138 -1.684252119305152 1.695671261459095
Ar -2.729297409204719 2.682998309279945 2.107865549512898
Ar 2.531449994015312 -1.085495209517007 -1.169783269783087
Ar 1.628531269838241 -0.6955661628615133 -1.659689513472278
Ar 0.5286889821495655 -0.181098983083498 2.075487222219256
Ar -1.192338447080337 -0.0598168169247881 1.193929977183869
Ar -0.5225158087281517 -1.281308397598423 -0.1125412067673539
Ar -0.03773585881280087 0.02474501115577477 1.15238793751921
Ar 0.4350986749055751 0.3307006539432527 0.2041797840717506
Ar -0.5341992124507196 -0.588624124512492 1.965448816865236
Ar 1.53030738419314 0.4131968624741429 0.1018199985136287
Ar 1.664676425092879 -1.264599482849215 -0.5390090543110684
Ar 0.05216374919177661 -1.780793805266693 0.7034365840645023
Ar -1.844302741156996 2.022312148018874 1.963474336907391
Ar 3.753502214569685 2.544915102005652 -3.351684647375537
Ar 2.080238289146484 0.211422528482286 1.021454181947486
Ar 0.2449000053058221 -0.7241834645456295 0.3912586414804977
Ar -2.498229351631714 3.441824868516309 2.897084050281943
Ar -1.820589956574049 3.421058193627769 -1.9045773387662
Ar -2.728648791450687 1.669190042064111 2.563524555181628
Ar -2.072576124284918 3.455011596068366 -0.8112927533513997
Ar -1.079594129879824 -0.5313840601303527 -0.692454200880403
Ar 2.023520953703136 -1.757462328848368 0.356351385668525
Ar 0.6354221922085956 -1.992598190755294 1.60785020502999
Ar 1.18452208013362 -0.628766485602368 2.848452655366669
Ar -1.491173767148103 -0.8409639581854751 0.3254412538980016
Ar 1.600965318206213 -0.09005038641608948 1.94469421890751
Ar 0.7592838396409969 -1.062386671630493 -1.136198343807637
Ar 0.8855526824093695 0.6685833376304361 1.400070649187105
Ar 2.418810536922876 -2.061942580489982 -0.6603725919529231
Ar 1.033484663388467 -2.33548209438675 0.5969495340100522
Ar 2.07493764307304 -0.8848388320196349 1.2867766707818
Ar -2.032866609600192 2.434571553802783 2.981572001586317
Ar 1.048036596526964 -0.4967920265251653 -0.2024874345959308
Ar -3.128364352358667 2.542870748695307 3.143692019671389
Ar 0.9408900217261936 0.05643516880604018 -1.109840226551184
Ar 1.732568561372743 -1.948088269708899 1.405446942732887
Ar -0.633283199891296 -0.09710268154524061 0.2173635837134703
Ar -1.479197742782451 -1.140338597763309 1.514018659212963
Ar 0.3180217761404686 -0.9768775032649806 1.397103987344582
Ar 1.223751773252051 -1.110013271967345 1.882086967721182
Ar 0.2780188215464579 -1.235819770825058 2.444266140648744
55
algorithm=ga size=55 seed=0 index=7 energy=-215.0774788095772 initial_offset=7 step=8
Ar 0.6935190652781567 1.847357789488208 1.445182000464007
Ar -1.73961841348658 -0.9433054847185132 1.6646697165427
Ar -2.567734867149329 1.010401995205356 1.203185507533452
Ar -0.6612187536310508 -1.04072842197131 -1.820962253682961
Ar -1.287743892415028 -0.2490046099476242 0.08056239863616403
Ar 0.2155427378868794 2.833787732957901 1.31748115593295
Ar -0.08718117126326272 1.962465007780297 -0.7089054740565608
Ar -1.488988103519832 0.7649870273994617 -1.803878047095368
Ar -2.182289855145113 0.4211539543260756 -0.08950694374869975
Ar 3.057315248971257 1.600978794742958 -0.9701598448040871
Ar 0.06647784713866009 -0.6444867777573343 -1.058310994984638
Ar -2.42438951740508 0.3122534186423154 -1.245099312272527
Ar -0.4342921521722726 -1.419090246410111 2.901132338091984
Ar -1.705450833817075 -0.1607982229041831 2.546013516168642
Ar 0.091747087916614 1.065554990256109 1.014553323150418
Ar -0.3730874413200248 -1.632833335705367 -0.8455669126270189
Ar -1.122082140885468 1.88271874138941 -0.3895512972246731
Ar -0.3364321318055833 -0.8422327920719846 0.006421930523746327
Ar -1.520516645966276 -1.227314429689443 2.722151910697979
Ar 0.08417068537877127 2.053815688934276 0.4873427490649595
Ar 0.05349688131148481 1.15354025763579 2.115444654592
Ar -1.424827372815762 0.2233050552011607 -0.8858438207527684
Ar -0.8608593392857629 -0.4279477022479367 3.199177814335988
Ar -1.880608178397778 1.211186049061368 -0.8428852847977536
Ar 2.576232227978519 0.8925676745407707 -1.69576504092081
Ar 0.2008957934417343 2.267844943578678 2.338943195167289
Ar -1.026515365875248 -0.7618816713970521 -0.8420992658486829
Ar 3.522679407730129 0.5993788877305115 -1.168518490437618
Ar 2.558996478679092 0.6669420139294051 -0.5961574250618541
Ar -0.4166126807558082 0.1325081989326168 -0.4674090520542061
Ar -1.975111635121079 1.510981728406556 0.2456733002036739
Ar -0.8343447581000204 -0.7318896984004913 0.9837781570587152
Ar -1.644090562102246 -0.4197505750317429 -1.71170668848059
Ar -1.675071748863447 1.689036610034088 1.326065692275604
Ar -0.5987003843607251 0.3242433282021933 0.6530371809883455
Ar -0.8523139213062692 0.9838647620706777 1.536907123874219
Ar -2.070748407427033 -0.3366132298470355 0.7798882380103191
Ar 3.087444098211548 -2.664923806222376 3.204949815716627
Ar -1.627894716208941 0.6784241472018434 0.8319309685176853
Ar -2.411937471162353 0.02118599838355969 1.729900292969146
Ar -1.79694721006061 0.8615776268967317 2.055275007167222
Ar -0.6839964984300334 1.041958976200529 -1.040278825280109
Ar -2.104383933490132 -0.5727986276743491 -0.6066235469571117
Ar -0.87061855635846 1.536310977111449 0.6168355992489626
Ar -0.7433328057748577 -0.686155997289571 2.130797384036015
Ar -0.118731112966579 1.092860344970346 -0.05492638763151
Ar -0.4341306492846968 1.971075225257513 1.498040019172069
Ar -0.1664965861836014 0.1183264053100475 1.62014140426632
Ar -1.251058787912812 1.84651742226714 -1.501330375282152
Ar -1.297635289188451 0.02298640785047621 1.563469621775622
Ar -1.169922354304247 0.8402749122215565 -0.1012764449396435
Ar -0.7860260410836416 0.4294700724150714 2.472989280413591
Ar -0.6220304805878507 0.05099802625920848 -1.576329717732414
Ar -2.547598437916658 -0.8609884792693336 2.413432882918187
Ar 0.5906505307003054 -1.329562280737081 -0.3579870826649711
55
algorithm=ga size=55 seed=0 index=8 energy=-243.980389588742 initial_offset=8 step=9
Ar 0.1235252439105191 1.386746488831836 -1.217431240266053
Ar 1.27921612543483 0.753800484598438 -0.3925168662283327
Ar 0.2050478825119897 -0.2998481625489634 -1.95605681195151
Ar 0.408833917202693 -1.208618663234493 -1.364899007314568
Ar -1.014019893697841 -0.3567688360543356 0.7573846573216877
Ar -0.1215799878977822 -1.21907557222571 -0.4049516979721645
Ar 0.7053174932660022 0.1236260183875534 1.231496386045016
Ar -1.628358070350953 -0.7853787488267734 -1.405690208643512
Ar -1.132531164112674 -1.504679017435882 -0.7261026484744763
Ar 0.1913322647072909 0.6667559370672 -0.3966031215433484
Ar 0.6628576122895105 -1.250413509939932 -2.401678795151176
Ar -0.4834248233364533 -2.250881053497495 -0.2252797581471188
Ar 0.06312927828061081 1.032288781838357 1.391971468809806
Ar -2.182763056460019 2.241460430302131 0.4688439821777627
Ar 1.399748339855897 -1.389243596795208 -0.9634975292655915
Ar -0.7767663712290979 1.111076061368779 -0.6224067360436863
Ar -0.5602029645036629 -0.7036531374629872 -1.213003192801163
Ar -0.1929669771191303 0.3486687737847774 0.5672030150270366
Ar -1.290152365609989 0.1621530420936618 -0.9768260863937834
Ar 0.436437079930296 -0.3319899359372542 -0.8046949675462661
Ar -1.255247598890549 -1.759433889393841 -1.795115859338023
Ar -1.491371324674904 -0.6119608975171669 -0.2296322880474655
Ar -0.4889556279958331 -0.2012750327838657 -0.2798884090742418
Ar 0.7752696527893234 -0.06038843251275908 0.16792316764331
Ar -0.4197194017401992 -1.166147057941649 -2.159562585903589
Ar -0.9280653212572443 -0.1483951966138728 -2.050507516435788
Ar 1.203773997251353 1.165106440264436 1.413659475535022
Ar 0.02058631637745132 -0.7003978893218211 0.5684820747206871
Ar 0.883492303860362 -1.103405343690511 -0.05555988418580451
Ar 0.5620479196030245 -2.031873418087045 -0.5877769594481175
Ar 1.206835416317663 -0.508105100473105 -1.62397112563122
Ar 0.5601810507311644 1.937425793025652 0.8636393936497286
Ar -0.2933854122788941 0.3661657678993011 -1.289759357719647
Ar -1.36534476409204 1.533531806711116 0.2347785267787304
Ar 1.682863264091602 -1.420634391912083 -2.025344046618208
Ar -0.3287741467088654 -0.05735710936708564 1.557910834947171
Ar 0.1740435095742813 -1.769584087550393 0.5103818762898927
Ar -0.521271990034231 -1.175174205328299 1.376681568178805
Ar 0.6858418536064382 0.9379178194834397 0.5093976290006443
Ar 0.8058132526704044 0.50492415419158 -1.361012185759664
Ar 0.6064886440925092 1.68667196629487 -0.2599069662539008
Ar 0.006800579407114839 -2.153345439650801 -2.317742851397496
Ar -0.8771136533202747 -1.358908505495589 0.3433938834669537
Ar 1.544408959345913 1.562479460458175 0.3668968025864581
Ar -0.2913539763846939 1.394348558788283 0.3488705330883923
Ar -1.196654216215967 -2.572577191421183 -1.020206712967678
Ar 1.646998758930682 0.4497857452556753 0.6083623442327194
Ar -1.254721718730731 0.4561210686203748 0.0930649972596409