75
algorithm=ga size=75 seed=0 index=0 energy=-250.5923423463099 initial_offset=0 step=1
Ar 2.244658488397325 -2.233655215600468 -0.3713240088229979
Ar -3.129594258380257 2.275095079810439 2.763758016265572
Ar -0.6436814626870473 1.416019112858521 1.201607533064394
Ar 3.095652539781217 2.226071787187276 -3.163611315058072
Ar 2.56973737599133 -2.136702301224788 0.6568251641623218
Ar -2.462871769732168 2.450013818252696 0.3895961680149454
Ar -2.290626515152043 0.1278590758489546 -3.968184079834983
Ar -1.669722708358681 1.173500032080457 1.636651522979196
Ar 1.032018052047169 -0.9323629314907225 1.947358617489145
Ar 3.581541527040296 2.245134582663978 2.119957321773472
Ar 1.389863588946141 -1.58677804126026 -0.5948848914980236
Ar 1.744342199941877 -0.4719743234865426 -0.4845655333065392
Ar -1.478567027566845 2.85238210486244 2.552257614694302
Ar -1.945368807096423 1.138151168870586 -2.159350708501481
Ar 2.804762008815871 -0.4803346038727001 -0.1028243231654717
Ar 1.463438135687334 -2.03119081348242 0.513414968974232
Ar -3.126102784312168 2.436995316190542 1.659113598931571
Ar -2.427950796608332 1.671358482818191 -3.839989114459874
Ar 0.4858706288309921 -1.88662067366298 0.07384239229957594
Ar 1.985987219651995 -2.018013104894812 -1.444701178554864
Ar -1.999739749031081 -0.1803832489150572 -2.916596120795157
Ar 1.094020335483952 -0.9663005182945904 0.2358217256369449
Ar -1.488053585509112 3.005369815585814 0.5178213605985955
Ar -2.201814663875724 2.004505255072851 2.225203864154184
Ar -0.592894263873366 2.527876699312607 0.9844517192655491
Ar 1.375827234635882 -0.3891282645687541 2.818964237989758
Ar 1.361411154607386 -1.958757385208728 1.853502666512012
Ar 0.7071631414367654 0.09548990381134138 2.070391326116218
Ar -1.214563086391326 2.145897242882064 1.788013214523722
Ar 2.457230661993061 -1.884618467489046 1.684791631381634
Ar 2.492560941730734 3.16385297875722 -3.244154203612571
Ar 3.158053518528622 3.090486223267283 2.724664437245489
Ar -2.519680326182484 3.095513062264159 2.309498800966141
Ar 1.634550793472496 -0.9516699974879079 -1.484967119229567
Ar 2.681914142939808 2.703665138242303 -2.243174924501186
Ar 0.0233742814529424 -0.7114559311978308 1.624525137313214
Ar -2.519272709594052 1.67230737582929 1.176284332725888
Ar -3.069827725221043 0.8064081598538938 -3.543149530251639
Ar 0.9251674376608416 -0.3210495908457764 1.068371875235576
Ar -2.77896869234984 1.569354678879701 -2.781442964924868
Ar 0.297161166494314 -0.754814750315682 2.717769611050996
Ar 2.117452796925391 -1.276221785577651 0.1733045875521359
Ar 3.071812680852193 -2.060089120829542 -1.121836417571792
Ar -2.082833956248263 2.681296283268075 1.388302774567163
Ar 1.542336380739541 0.151309481301596 -1.384578057291479
Ar -1.193784672575324 3.274785387402251 1.562205621546354
Ar 1.734735855728341 -1.192679885851547 1.179517693808288
Ar 1.657917327360939 2.671540798092391 -2.686785547610354
Ar -1.741330154515919 1.915190703097627 -2.968947972054448
Ar 0.6629006834721123 -1.455680999195332 1.086623540349895
Ar -3.056396954273149 -0.2754035032134968 -3.270341989482476
Ar 2.804160867451459 -1.042523419298203 0.9606668452066334
Ar 1.84773899804862 -2.735847987117553 1.256511080307402
Ar -2.788334617391304 -0.5759754077219145 -2.227364379347196
Ar -0.3794181000317357 2.766209058592107 2.101489625273908
Ar 1.126727425549771 -1.510440232554133 2.85724828348307
Ar 2.563407918854526 -0.256526201413835 -1.217927860756734
Ar 2.663417389559942 -1.218803143826133 -1.875563004760691
Ar 3.239869157981991 3.184412736672524 1.609124145239855
Ar 4.166399470025138 3.195291569097174 2.242795233366365
Ar 2.441058195827704 -1.242070189351243 -0.8246889517387813
Ar 2.260783317189716 1.732420113991361 -2.605629010087807
Ar -1.532541615102976 1.925752373155027 0.7659839424047532
Ar 1.951996497668989 -0.2893219521531114 0.6091201341460095
Ar 0.2995210494339947 -1.725698092947779 2.09612426880097
Ar 0.7212600773707497 -2.536240702462161 1.160009504480298
Ar 2.123837049325123 -0.3009333993830551 -2.23737498679988
Ar -2.001811930697536 0.8723334930210004 -3.220540431589886
Ar 1.80366295339654 -0.2011925800988534 1.728965242510318
Ar -3.1015675336833 1.38777319675132 2.072794547193783
Ar -2.786541045306465 0.4974795385676429 -2.513562180525605
Ar 3.154773139262344 -1.557174618262914 -0.06656437395440314
Ar 2.030941210259399 -1.121509619485397 2.302777086526224
Ar 2.071672255914366 2.193988752013153 -3.607238514783011
Ar -3.582842904701569 -3.611757486583297 3.111121747258919
75
algorithm=ga size=75 seed=0 index=1 energy=-350.8163558509029 initial_offset=1 step=2
Ar 0.4411864041168337 0.5032039903827498 -1.667313809541026
Ar 1.054149011760926 -0.3050069938122234 0.1688567986270782
Ar 1.713354527711983 0.2967168178433954 -0.4057937163916464
Ar -2.475518830876496 0.6247834975767219 0.4257574758156448
Ar -0.06361635450209706 2.028749926319465 -0.6805433371814786
Ar 0.4435058976222087 -0.9562292001499069 0.7567798718271985
Ar -0.596382241351612 -1.22394284318784 0.7944575073201611
Ar -2.394119215999405 -0.9885250774677574 1.344504130540094
Ar 2.510468098026537 0.6108637573900811 0.3328762664215654
Ar -1.825628892440512 -1.407974095953866 2.208710830382421
Ar -0.003018937725684406 -0.1644090797923277 0.1131589108164005
Ar 1.311391341715277 0.2177039728949418 1.822800258386967
Ar -2.466323367001789 0.1461239023282818 -0.6695146861392157
Ar -1.909738260984065 -0.06193035998136303 1.031648857539537
Ar -0.2777618819955526 -0.480860736964497 1.529653799225681
Ar 0.529830372648343 0.06144566923759206 1.056041619085551
Ar -2.636910514878303 -0.4831813687753718 0.3291908110827577
Ar 0.688535925244094 -0.7810444181983006 1.837854237610561
Ar -0.6628797456811537 -1.511148077295877 1.92309429579446
Ar 1.640131171779021 1.255212549164307 0.0534257610122312
Ar -0.507502499367863 -2.303931208151452 0.8093826062397088
Ar 1.079375567002912 1.06014102622018 -0.8893660150009307
Ar -2.931822901535532 0.02944108314267946 1.322058084671419
Ar 1.402676955282836 -1.313874334602493 0.2795102718651168
Ar 2.130677620377096 -0.4389935423071724 0.2801626141627689
Ar -1.071191112457657 0.3215949168975041 1.645321921180896
Ar 2.385196639526545 1.696156559898181 0.6970388407928341
Ar -0.9704130415093999 1.388671782043052 -0.9857170614731855
Ar 0.8467589590793717 -1.741646749929049 2.33446014647535
Ar -1.997288431712492 -0.9766477486262459 -0.482542211137127
Ar 0.4288681218276667 -1.023984431645687 -0.3563272980264353
Ar -0.8658788654551993 -0.7985847297460862 -0.18623981908084
Ar -1.746673146323418 0.9929872695846608 -0.3241931313493753
Ar 0.7106965256041763 1.099043080835669 1.181093638055151
Ar 2.316918038677589 -0.06893721892012111 1.354278056708904
Ar -0.6356513054422678 0.4677970835757637 -1.436270069098114
Ar 1.43365539015882 -0.7449885537988192 -0.7460486975042483
Ar -1.305358500400079 -0.7591257937719245 1.534420579067511
Ar 0.3953636875436882 -1.925779721541841 0.2851937169743324
Ar -0.2665856302542984 0.7239381215457481 0.6893025511132099
Ar 1.259118671953128 1.957356320939473 0.7785567636239432
Ar -0.7957788078272384 0.4142133869645976 -0.3099680241311559
Ar -1.17843699127831 -1.830852078309105 0.06075848084290514
Ar -0.8864787862993543 -0.1741476871752844 0.6962073879326948
Ar 2.816071617617996 0.9050224309995154 1.35520824841082
Ar 1.417482191534389 -0.5793728958974868 1.094101316521995
Ar 0.6643718821779905 -0.6049900082220214 -1.548219216410525
Ar 0.2596882890910514 -1.58766510928212 -1.265479177629414
Ar 0.02428139316635878 0.956202850027254 -0.6693611444136623
Ar 1.471604155970254 0.1489858136081694 -1.45613638643401
Ar 0.6577935569849956 0.0718754327308169 -0.7195352721000915
Ar 1.296490420723883 -1.625872586858548 1.319736364723695
Ar -1.354738452035019 -0.2552946019209973 -1.007913965398731
Ar 1.776994389737858 -0.9118776191677626 2.053715525162748
Ar 0.7025227732753686 0.7076571368359134 0.140125612031622
Ar -2.0781182041632 -0.2072612808065273 2.088272191015365
Ar -1.375406997812123 0.8096755037773069 0.6847103894696241
Ar -0.7612758826194842 1.46346118380992 0.05627306233112078
Ar -1.10651085101312 1.247197115318053 -2.078056250144309
Ar 0.8051625907523303 1.983179465915792 -1.418334842182346
Ar 1.358278721925656 -1.442840696003439 -1.617776800592796
Ar 1.123776243593474 -1.835604320715623 -0.6191973431712752
Ar 2.306086279686093 -1.192372215215319 1.069940010695782
Ar 1.017036567332441 2.041190653905277 -0.3418146151222847
Ar -0.2516836216818868 -0.4235429943432703 -0.9741004703328587
Ar -1.6868455903562 -0.04756110281573875 0.005189597765677831
Ar -1.658912111789035 -0.9867445843167844 0.5389360720737674
Ar 0.2614301111790165 1.665094629596308 0.3339960052467754
Ar 1.763346318838416 1.212223966834334 1.476602288243053
Ar -0.1067015069544422 1.440364840533466 -1.64801137494501
Ar -2.136768400117384 0.8352768550896207 1.548335914595757
Ar 1.535920336198218 0.4374861455104989 0.7598647378171081
Ar -1.458599018435473 -1.80918324089195 1.209187036761268
Ar 0.2325405731042811 -1.766367338364096 1.404945793912978
Ar -1.747808482123326 0.6840879067620065 -1.371354022226276
75
algorithm=ga size=75 seed=0 index=2 energy=-259.6281623062645 initial_offset=2 step=3
Ar -0.9661974356055436 -1.242407528261413 2.217812838800165
Ar -1.04400198844636 0.1733041828722792 0.9564124777990234
Ar -1.3255344585033 -2.151389519372555 -0.4792644942576887
Ar 2.393384224451504 0.4321043060934126 -2.322594446017439
Ar 0.08383511950778386 0.1884764724037525 0.8199435108073835
Ar 0.1111010014013261 3.437768421098335 1.075455128410311
Ar -2.020365109739013 -1.336679585507923 -0.2505366682155934
Ar -0.3572554994437305 2.877075326191205 1.924591772244545
Ar -1.606807225572252 3.143917313509282 0.1116261492746522
Ar 1.71161743295181 -2.283056159021839 -2.760753438740696
Ar -1.929787619704206 2.588776415315902 1.025911032136815
Ar 2.500553358219555 -0.5621439523637581 -1.753339375495745
Ar 0.474679694300507 -0.8208462654628986 1.122635802711409
Ar -0.891222256128646 2.968607639805404 0.9513437023757112
Ar 1.1526930424005 -0.6385678125455706 1.938741931384168
Ar -0.7205114725003589 0.07546490983196227 -0.1481298241081446
Ar -2.500435931070685 -2.038736107212313 1.506175641667061
Ar -0.8244224973644366 3.570270198475615 2.670275165774115
Ar -1.714132717385677 3.713772246829388 1.058892135154145
Ar 1.516641967224783 -0.2673950657185842 -2.202953242895778
Ar -1.965215027745728 -2.276755139593101 0.500446374285316
Ar -1.842326133098109 -2.915489196752374 1.440618167228283
Ar -2.10510565399446 -0.2106866169451985 1.184569476655682
Ar 0.4199358615726262 0.1498972937707871 1.932543164055861
Ar 2.149838561745445 -0.2678129730061746 1.531497720291235
Ar 1.00844011938241 1.839130397772909 -2.306470559598834
Ar 1.68127380031093 0.2477149785353893 -3.199459877111007
Ar -1.457901061218304 3.049355397408068 1.917035933062804
Ar -4.065518918687056 -1.672005475944825 -4.082305102197138
Ar 2.920968598779201 -1.418657463840196 -2.42454426270245
Ar 2.145305298423938 -0.5087914167897143 -3.890816939771418
Ar -2.591143986227535 -0.4522412923627607 0.1777443269553139
Ar 0.8327402327578255 -1.600974315085863 -2.600923223974434
Ar -0.9641854704223074 -1.012969900302277 -0.5129469560566652
Ar 0.1598089244455989 -1.016901863855072 2.251017363795094
Ar 1.841460499545259 -1.311977097925179 -2.266754562443773
Ar 1.160467740817946 1.28888898013846 -3.276262616841483
Ar -1.258402842730172 -0.8891326606726677 1.234014515960167
Ar 2.326675843034999 0.1136986192481095 2.554149171612745
Ar -2.625562025726427 3.32097716106676 0.5567014653592807
Ar -2.171095980854238 -1.254809287599792 0.8259404548582058
Ar -0.4125088317832757 -0.4112542945095053 1.604478335709786
Ar 1.291559769986745 -0.1493532481799864 2.893382083707695
Ar -0.7664083888104273 3.87472953334538 1.601660473235777
Ar 2.600243074374081 -1.734032357280149 1.777209304513201
Ar 2.238716927889532 1.189904734400841 -3.106788662080093
Ar 1.220389343963643 -1.786668662146502 -3.638905467374953
Ar -2.525534368443821 3.27402649159726 1.676984789281915
Ar -1.133848893834181 -1.569588731552459 0.4199310987748845
Ar 1.707768907557382 -2.321064562638176 1.225389367610709
Ar 1.652283760963627 -1.965448903414765 2.272577917220879
Ar 1.357180316934089 0.8039604140318686 -2.309578826895395
Ar -0.4462370795531018 -0.7364638686189974 0.5225812119620944
Ar 2.091507711709551 1.587720426872778 -2.104109606474882
Ar -1.388571818912302 -1.919534450327502 1.40138421937668
Ar 1.450466707950358 0.4658867986361662 1.983375927715854
Ar 2.396173650866066 -0.5349807791583073 -2.830889995091082
Ar -0.3445838826942438 -1.513652502705098 1.338310963650395
Ar 2.06189723274642 -0.9534648155832265 2.406120561646037
Ar 1.184484450661476 -0.01117148875562141 1.030966766079003
Ar 1.79089775108995 2.183062609763473 -3.026320027360898
Ar -1.782828427216459 -2.103400387014609 2.390750321367256
Ar 1.730630834370796 -1.238469411880541 1.297683618674237
Ar 1.724520594205369 2.642467998221035 -2.015999689373207
Ar 1.370897122265226 -0.8102460516532255 -3.150667364086147
Ar 0.7885981288877588 -1.689957419920121 1.666175381703986
Ar -1.388917220134432 -0.1898563987841096 2.047456051198191
Ar -1.516645958408902 -0.524175491922613 0.2920593899960752
Ar -1.842337925015888 -0.3159480031825379 -0.7174020398899679
Ar 2.791627937602351 0.2949331083789052 -3.396984468715306
Ar 1.05657361688308 -1.243271818901477 2.852120574875051
Ar 2.241363167853694 -1.492831516999402 -3.322989335195342
Ar 0.9202153093694593 2.832685453135038 -2.790116996034652
Ar -2.049311564596295 -1.11201910256956 1.928358076455998
Ar 2.445391537357652 0.7984732015619571 1.650935593108494
75
algorithm=ga size=75 seed=0 index=3 energy=-351.21772625237 initial_offset=3 step=4
Ar -2.125648258399697 -1.196844674683174 1.60129050779597
Ar 1.090356386046099 -2.314673212782262 -0.871523820702243
Ar -0.3205474009350582 -2.410156055169159 0.7393993443746525
Ar -2.049086001111285 -1.210804564846196 0.4892747713176265
Ar -0.1859865138364712 0.6234322825161587 0.7306630019666273
Ar 2.390642286523705 -0.4261326620275237 0.6429284949016389
Ar 0.9635890776464316 -1.823180337109145 -1.884570592672449
Ar 2.582357503397859 -1.177341615867349 -1.120080615064187
Ar 1.57779304907476 -0.4202474993651712 1.417373323268437
Ar 1.625256432400224 -2.312468318492542 0.2574844684548486
Ar -0.9261004679234326 -2.362081365649594 -0.1773908288720736
Ar 2.730897731041402 -1.464448883862017 0.7600860619474286
Ar -0.5147627735873797 0.7987092403585863 1.738837433039517
Ar 0.0298731745740328 1.688387335122153 0.8750294317866716
Ar 1.798398052107365 1.324579267377004 0.127311640549752
Ar 0.9882017630388911 1.69835600629701 -1.518980578819348
Ar 1.400726660433444 -0.5514253088657051 0.3065084350059473
Ar -0.3861324176831032 0.9380316130189584 -1.1830231787189
Ar 1.617163596169896 -1.404096830856965 0.9077604662606947
Ar 1.216557580555859 0.01336581539955576 -2.398662791861036
Ar -1.204614746236652 0.3262645190349339 0.9779923353217027
Ar 0.9254515226779707 1.831960941223976 -0.3146157546440427
Ar 2.893249006914117 -2.637421326111192 3.31793398166191
Ar 0.5588711251001688 0.9425936714503753 1.487454303510419
Ar 0.8969363787435993 0.9804171867147924 -2.863909188974815
Ar -0.1369083869248599 -1.951441927654741 -1.847833259322501
Ar -0.05128128085097092 1.632861203368625 -2.047878423221988
Ar -0.2518681903084368 -0.2552778424134672 1.429999724468277
Ar 1.653606557089157 0.9285537052242484 -1.990091805262571
Ar 0.5483374292970178 0.7572109199602891 -1.87381924382617
Ar 1.027015515811371 -1.518991892719281 -0.122619134320411
Ar 1.31515966617659 0.3631925465354808 -0.2326339410284279
Ar -0.2683464413913503 -0.7153097809596004 -0.5438522594416695
Ar -1.24123541000453 -0.7663946858563427 1.11102920599039
Ar 0.8044768396172327 -0.7368871414856469 -1.70840715056692
Ar -0.3290810576883484 -1.31795924225258 0.9593948765225303
Ar 0.6323088132320497 -0.9447600491387382 1.380922536016318
Ar -0.7290437591041612 -1.613184869891776 -0.9488484448791191
Ar -1.023172210096931 -1.263744064573024 0.08972667996936112
Ar 2.5075027976695 0.1874294159918338 1.53764878845996
Ar 2.563589940511492 1.057510572180431 0.8566532322439121
Ar 1.712837623575072 1.116686514743698 -0.91637788544059
Ar 0.3898047390789622 -1.463462775657339 -1.012401615274151
Ar 0.3813835196880593 -0.8160168243290026 0.3342240015666966
Ar 0.6300834926274524 -1.859302978522246 0.8168006133152425
Ar 0.1204446590243101 -0.1252270111875887 -2.33570535673711
Ar -1.573392708797366 -0.2841729587466009 0.1020215405530929
Ar 1.49979372924032 -1.319191947251309 -1.072507536561287
Ar 1.910500977072966 -0.5687319032607118 -1.759910067115943
Ar -0.2988572955935442 -0.8796974794467269 -1.64669791394075
Ar 0.0583936813207746 1.930594119399897 -0.9959222584325984
Ar 0.6707892720595561 -0.0285574339317855 1.989578262914387
Ar 2.938909907512752 -0.5760298199193772 -0.2736378170194602
Ar 2.093603178184723 -1.329221976780443 -0.1080352749433684
Ar -0.9910703138345145 1.315872413888174 0.5189877363733293
Ar -0.02799530492161684 -2.468368452474624 -0.8706749849756676
Ar -0.1071151419435583 1.285922892224213 -0.1425945173879582
Ar 0.8468943444472232 -0.5654793335732696 -0.6217353773521863
Ar 1.924734037464968 -0.415554517745406 -0.6453745878849743
Ar 1.689366191443283 0.4356322155119619 0.7689107490878022
Ar -0.05044650240742853 -1.708116225945536 -0.06168468399482802
Ar 1.547309652157111 0.6147976161193991 1.842716787265813
Ar -2.188353278061217 -0.2203183662677041 1.027915885515343
Ar 0.2505867670627908 0.1881800167551952 -0.1347382201870095
Ar 2.391423080723307 0.4174725320390183 -0.1050407007519067
Ar 0.6410897377872421 0.9325561911845925 -0.8219341249105305
Ar 0.7860775899794284 1.02177283950368 0.4124210186189385
Ar 0.5600132934457808 -2.609581200463985 0.04293963189505563
Ar 1.484201209366893 1.467503142096114 1.156414199310599
Ar -0.5457221224490513 -0.3392712472840481 0.4137298367310414
Ar -0.8173850757065764 0.4722688566008774 -0.236229140071348
Ar 2.377253490417866 0.326674274548716 -1.276240707055185
Ar 1.263601328815811 0.1741708804423333 -1.298271050482941
Ar 0.1635107549294707 0.007707972465245539 -1.21395844352799
Ar 0.6981615575467788 0.03902764662853774 0.8880036860783324
75
algorithm=ga size=75 seed=0 index=4 energy=-311.7444201216455 initial_offset=4 step=5
Ar 2.86781916803072 -0.5563978429472957 1.418646961337561
Ar -1.621654174530824 -0.2829972462143841 0.5888963913976283
Ar 1.512416715187555 -1.682441755062716 1.864248007938549
Ar -0.4908696958165958 1.281658197728307 0.4643478498588473
Ar -0.431175208393276 2.308545852372649 3.027811698338963
Ar -0.614732946553404 2.687989611033942 1.154505538434116
Ar -1.925338447090925 1.734263045499559 1.948049734502857
Ar 2.701496506204145 1.904266932536316 -2.997180273435487
Ar -0.6220195347267112 -0.1785737799421339 1.040480248743024
Ar 1.190220221622414 0.01542611562179446 0.86367470002879
Ar 0.2774061888596356 1.470156256793778 3.113190351145353
Ar 0.3917459289825395 -0.3825925530521532 2.537298045822777
Ar 0.1822824907416721 0.4170642692357655 0.5499250581296876
Ar -1.28796103515514 1.613203996001004 2.855986349428925
Ar -0.007734898384710566 0.8921657183283364 -0.439053215741619
Ar -1.520156988298752 -0.1255353949626969 1.678770400969812
Ar 2.360379569195014 -1.532401829974547 1.185060146262059
Ar -1.985792045740443 1.56960454595899 0.8556936659730089
Ar 1.23020727336578 -0.5510022494171318 -0.05408550048180841
Ar -1.182916613355667 2.158757269731296 0.3718000526405976
Ar 0.03672332498128533 2.570254075201637 2.048887882862049
Ar 1.58057850229761 1.057932634447999 0.6606680170767147
Ar -1.231401612118989 0.8903550263207128 2.035420237358523
Ar 0.9988974027923394 0.5288927909305953 -0.1394481152173548
Ar 2.037875556061476 1.094440202611804 -2.576028000334825
Ar -0.2876595987094564 -0.9370514765254602 1.772081065759203
Ar 0.977225321080377 1.424564952701159 -2.652484331956287
Ar 0.3175510098120843 -0.0158286971297286 1.522236997647969
Ar -0.3331497902179386 0.8221314223522795 1.430778889383317
Ar 0.4505967109735515 -3.614344627301771 -2.477002565529009
Ar -1.74545075389942 0.1136775519721595 -0.4245983551498949
Ar -1.44306095157907 1.148915878971508 -0.00871966004510087
Ar -0.5811046678171354 0.7767398661609288 2.960884828997472
Ar 0.7413194446556346 -3.238992973258384 -3.49411880273526
Ar 0.7785115348247392 -0.9379747006131994 1.647115823900261
Ar 1.275432658059559 0.2169924190976441 1.957910180736875
Ar -1.014827246647625 0.7742598428292619 -0.9306630683154956
Ar -0.3743549739247233 1.561490534745909 2.217536515136617
Ar 2.530453736786358 0.9571382000958977 -3.565866125296763
Ar -1.487284408826207 0.1388428199427477 2.77304390130094
Ar -0.5577664305096305 0.04165684949988069 2.160366014797874
Ar -1.011039013743242 1.682208493955542 1.332655403202872
Ar -0.7814346915512542 0.2797931215940563 0.06249490541242003
Ar -1.06906113531689 2.424895628485546 2.128001780798113
Ar 1.309850018317984 -1.28920511605604 0.7730664997769324
Ar 0.6347911819116608 -1.483736180198265 2.571858358281785
Ar -2.214962244674244 1.040665550572931 -0.7593763902029532
Ar 2.189619273985376 -0.6679575905389985 0.5262746996218576
Ar 1.159678779434212 1.961634449625732 1.1361406536903
Ar 1.785302162378368 -0.6498632737042357 1.516323740860432
Ar 0.06805895445953203 1.814621295680649 1.242628979001914
Ar 0.938427225882886 2.441103759039674 -3.126366977658082
Ar 2.643493666149337 1.73162687293075 -1.893171885463035
Ar -0.08889785787271938 2.288632277312955 0.2563791169027342
Ar 2.033494701188826 0.2774810740857078 0.06383548937662636
Ar 0.3421660984669081 -0.6777393640378679 0.6580002513073675
Ar 0.746347252668508 0.9522779073195191 1.329864192743796
Ar 0.4802229765087934 2.821280202768537 1.055000172433703
Ar -3.206720259022414 1.185310458003396 -3.317666269370664
Ar 0.5865824179479451 1.429123641799755 0.3446825650065338
Ar 1.69213610419 -1.696417882141919 2.951510268684561
Ar -2.132610507522909 1.981647698716561 -0.1714122937581163
Ar -0.342940630234769 -3.344819529522472 -3.223721240652719
Ar 1.70512174903464 1.702419647272817 -3.457144884233326
Ar 1.437146365422908 -0.7135402225912456 2.535167688656037
Ar -2.213320241317398 0.7269131473668732 1.543558609310685
Ar 0.3235936969206132 0.7060380021269889 2.322926101036062
Ar 1.776087407340297 2.177200131530799 -2.438602041198744
Ar 2.4169283995039 -1.168577445004254 2.253125425131423
Ar 0.7260225370549802 1.711375493311092 2.125417670783421
Ar -2.280199945599481 0.60231023372365 0.4168285744490209
Ar 2.186033577265418 0.3045964503329084 1.196684585531883
Ar -0.6867956149864702 1.759819675329652 -0.5241879961788968
Ar -1.294037451884959 0.6936679612805404 0.9550525705968101
Ar 2.311728367069054 -0.05149383834310414 2.262135520160846
75
algorithm=ga size=75 seed=0 index=5 energy=-286.2778827959638 initial_offset=5 step=6
Ar 0.7176772796300912 0.98080953928228 0.2444045264917454
Ar -1.952077874973606 -1.102948111406344 -1.506495305580926
Ar -0.8868220121187999 -1.476596021106541 -1.358817814962073
Ar 3.851775120453888 1.704749786474983 -2.783099889941946
Ar -0.4747610816393984 2.44676022621614 1.248810870299442
Ar 2.91233193771639 -1.531245670272855 0.2355459668289055
Ar 1.364805164335825 -2.661355853999833 0.4781558302148367
Ar -2.337956983066337 0.9692128399782121 -1.544145932588419
Ar 0.08730010296765896 1.589982546656187 -0.4031230159599467
Ar 3.535933442538547 2.533864180425367 -3.470941789335736
Ar 1.828298944115289 -3.478030381261273 -0.1241003380626883
Ar -0.2463845651219448 -0.6970336450368255 -0.9000921187932027
Ar 1.096775047285087 0.5943971599099266 -0.7095324550919921
Ar 1.344992382186208 -0.9689174375699471 2.022955780464723
Ar -1.321869044846477 0.09026858519142532 1.649518792548019
Ar -0.3204756748074038 0.2281879859597383 -1.453784531749612
Ar -3.166973135814056 3.190688716010052 -3.138342097425124
Ar 2.509309330273793 -0.8383773439843955 2.133449179249689
Ar -1.332073432873768 1.892942337207746 1.670700282105565
Ar -1.995614102035359 0.05173142078202234 -0.09076411177147459
Ar 0.6424827714239596 -0.2025393287301502 -1.325647068785731
Ar 1.617716352769733 -2.734085559292855 1.571759727674384
Ar 1.103974793911318 -2.04013310416244 2.306607564601165
Ar -1.477201860617252 -0.8328714957787325 0.6183826290851288
Ar -1.170622114267135 1.915465004598466 0.5712352787380548
Ar 3.660158574055012 4.0715216104579 1.786425238547833
Ar 2.722501745545701 -2.610190204279992 1.697560551288357
Ar 3.024273262472995 -1.575511740100969 1.380376735910144
Ar -0.2663161020319643 2.008110686270534 -1.408185383643982
Ar -1.392671227947552 -0.8313822784572832 -0.5043126300372914
Ar 0.04487214080481327 2.4730389170694 2.252685615209053
Ar -0.9996506170400279 1.983098464438742 -0.5165781492454272
Ar 2.409284122155049 -2.525096860746659 -0.1010199592323417
Ar -1.819970584097984 1.021914094562979 0.4570315295935984
Ar -1.023019965957102 0.1705663137367422 -0.5887926191312882
Ar -0.4903279477442478 1.124215794207022 -2.084823564165392
Ar 3.200648596074641 -2.487267510897195 0.7111385807467498
Ar -3.154395350787145 -3.821686869770408 -2.505523349239229
Ar -0.2587803208231682 1.523341054613095 1.812774330256098
Ar -0.530409529090569 -0.4964126778265003 1.181394168431859
Ar 2.048425832864864 -1.766182140464933 1.843734014733651
Ar -0.4621368402009091 -0.4865207614536075 0.1087548007700896
Ar -0.9396965598207238 1.013668303117293 1.156505137797742
Ar -4.031449328943931 -3.853390956377337 -3.205406365816652
Ar -1.172663898640722 -1.03218502020537 -2.374114425169785
Ar -1.097370493226553 0.9798145244749183 2.268567914304459
Ar -1.11398047315195 -0.4411833408671351 -1.482954984846201
Ar 0.5848327400452453 2.09042541038456 1.339031869883134
Ar -0.6484114952376057 1.100051943587765 -0.9938224589617226
Ar 2.060668529389313 -2.556678904539244 2.597268310293316
Ar -0.1141841044630738 1.559480709231244 0.6909827012772749
Ar -0.7979479129835844 0.07010098725072038 -2.429364733232322
Ar -2.061028975046623 -0.04454486084194044 -1.136693413381747
Ar 2.317151919928723 -3.161985070928508 0.8226422164912466
Ar 0.5703810343286876 0.9777746253983545 1.341253853325578
Ar -0.1194566273598399 0.4227812805994903 0.6744734897466267
Ar 1.160739503645194 -1.783444883978536 1.204849759918242
Ar 1.914472251298361 -1.46943134000263 2.876825281518295
Ar 0.3783782761303595 1.055981857830293 -1.381551256304444
Ar -0.1529534170634567 -0.7142108127673152 -1.985494469156352
Ar -1.964985359744272 0.9989678065720237 1.554086014049574
Ar -1.679753261529704 1.034837245307912 -0.6436201824336366
Ar -2.185350223778478 0.0766604614090054 0.9800887802759427
Ar -1.331441947801202 0.598879123661595 -1.626111744755925
Ar -1.161431735368951 0.1727622216283396 0.5562567790113652
Ar -1.375534761227686 1.684488874898026 -1.541303700671063
Ar -1.885287553992529 -0.1750043556907288 -2.216900662020989
Ar 1.272171949539869 0.5470942540687759 -1.819883929422304
Ar -4.173237468321719 -3.521146552169423 -2.142612185400504
Ar -0.265345734405049 0.4072361615815402 1.776165185272835
Ar 2.183344431899379 -2.062739343165495 0.8489831839066958
Ar 2.923906273883921 -1.831943835077599 2.484782596748779
Ar -0.7868510808145074 1.032045823993841 0.04419894449394978
Ar 0.2985380601742508 0.3278623538459985 -2.307951354826886
Ar 0.03266599631407301 0.4109675854552453 -0.4339501481891448
75
algorithm=ga size=75 seed=0 index=6 energy=-291.2062618652471 initial_offset=6 step=7
Ar 0.9924083061888138 -0.7074030349428205 -0.4643952202651808
Ar -1.229269828517832 2.129164580667513 2.673494454114955
Ar 1.19539910106561 -1.605954100814254 1.671337188647017
Ar -0.9126816512482651 -0.4148076624167404 3.722418258863254
Ar -2.927231638472099 1.274512710460286 2.380368442365114
Ar 1.675829666251838 -2.649887596575574 -1.142845953873925
Ar 0.9974612959463119 0.0176126854163255 0.3308804574691389
Ar -2.397645340001611 -1.536091912355045 -1.573066986224516
Ar 1.897905254873823 -0.8010720165416981 -1.044866449801372
Ar 2.735701248277433 -1.888920830318304 0.1455234358573148
Ar 1.904749167893299 -1.80624396805532 0.8624350696034847
Ar 2.595837295252672 -0.8951416700493922 0.6343621149052963
Ar 2.154893399837766 -1.043050760573541 1.610446072285267
Ar -0.5351976918751773 -0.3836103290544133 1.850875061380652
Ar -1.889379518029902 1.472287029418831 2.02984224288344
Ar 2.34912612076606 -1.809282043282156 -0.8696450582728231
Ar 2.126784886258889 -0.4478251657967592 -2.048387830847136
Ar 0.3538106947112035 1.166888008726456 1.896260721517272
Ar -0.117634373781671 -0.3224894741170545 2.913335581342729
Ar -3.406439587536111 -1.075419808070911 -1.74858216190946
Ar -0.4283597085176438 0.5806101221928256 2.352205000822957
Ar 2.147169915557827 0.6926596256918546 1.604923042411689
Ar -0.5341985985733987 0.5795128472235049 3.44853705124979
Ar 1.774055499035665 0.826558980721192 0.5183914612049145
Ar 2.005247126706424 -0.1801293015559371 -0.1143399858832287
Ar 0.3034218595355691 -1.478407030457729 1.079535104496666
Ar -1.238151387432203 1.062268868824172 2.792169683121838
Ar 3.129974218365999 2.637901568425416 -3.315589566376858
Ar 1.341990787281546 0.6210705528009334 2.346837134572445
Ar 0.3562304969493697 -0.3844600077077178 1.138708133898511
Ar -2.151734236535995 1.483166734054973 3.152757877579084
Ar -2.40497257493675 1.881611449600045 -2.790260122692856
Ar -1.349489666574412 0.516822167748392 1.79197905474046
Ar -2.941311938461817 1.700191723679714 -1.821363867828319
Ar -2.162489685004898 0.1292983829832136 -2.304878347818897
Ar 1.240929356611941 -0.93995587427514 0.7940599597942266
Ar 0.1372083872782875 -0.8543599837965904 0.1902541830393438
Ar 1.621326022941588 -1.16273861356491 2.572475078721903
Ar -2.781984884374671 0.6415481527398462 -1.511964303688079
Ar 2.859326199520542 -0.1881145125810395 1.491260436626903
Ar 1.855662192432332 -1.249744099001482 -0.06560842914133852
Ar 1.383904253135484 1.49353541441291 1.649609016830543
Ar 2.597834618036192 -2.812932003959062 -0.4938952628358099
Ar 0.6870527440193209 -2.523552943921577 -0.4951264381475928
Ar 1.904361931157898 -0.1420360879041221 0.979148520159127