38
algorithm=ga size=38 seed=1 index=0 energy=-157.9530628596819 initial_offset=0 step=1
Ar 1.739323984692452 0.7268467565461505 -0.905491963552308
Ar -0.6643851836782169 2.165634114432283 8.119545759810391e-05
Ar 0.5326871024565469 1.537623272990595 1.533429582490274
Ar -1.009317049267513 1.437918012662814 -0.7725077825187714
Ar 1.072154924079339 1.446569741432539 -0.2975091873285738
Ar 0.4136199912144725 2.560682601485352 1.144142702200726
Ar 1.525089480633431 0.08473660995424415 0.8423196197926374
Ar 2.010293929650734 -0.1830168890500173 -0.2357814240555315
Ar 1.325583559393027 1.947438565736459 0.7537043188909665
Ar -0.0120163391887169 -0.1370195920944517 -1.429091949117979
Ar 0.4637488910702523 -1.188128832159153 -0.6130844264699993
Ar 0.7727276552558876 -1.647673201600179 0.4479099174476044
Ar -0.646676806271118 -0.7265330820922306 -0.5602441931259319
Ar -0.876320133095207 1.12094067085193 0.2813245487382843
Ar -0.5032460652185698 1.850710786963239 1.097058422677894
Ar 0.01784744980116563 -1.46425749766742 1.301614942214905
Ar 0.1076685562730278 0.8364289012056915 -0.03608668892073311
Ar -0.6021545433970004 0.03477710597218164 0.353566958430479
Ar 0.8579459079818313 -0.7611324008500533 1.208138847335375
Ar -0.6592346189067892 0.4022862128127505 -0.6730295605032531
Ar 1.11039519826505 0.3806520052889512 -0.1278725966913825
Ar 0.06476366207937088 1.665510069190852 -0.7233968364350136
Ar -0.02083791206221586 -0.9038933842545387 0.3640060156579137
Ar 1.900084788742462 0.9945003582798226 0.3008444998826624
Ar 0.5948931666298823 0.7072168171082474 -1.01289135338154
Ar 1.607134369245896 -1.224747005787804 -0.6268987245430763
Ar -0.1585609944184716 0.8055032097826849 1.056725520421984
Ar -0.2080656692952246 -0.3458954837330731 1.370900908551457
Ar 1.129825712299209 -0.2891316526787231 -0.9844740169717643
Ar 0.7288485538594902 0.3718813091640163 1.606949921585555
Ar 0.4427011138385402 0.0302420722383109 0.6263766756232685
Ar 0.2888359911010212 1.811925460870015 0.3699838614938765
Ar 0.2343214367562217 -0.1585383791182659 -0.3930390471470188
Ar 1.082845849906298 -0.6620515952731442 0.1275236648736242
Ar -2.899421705625052 -3.057739559436462 -1.182630446301416
Ar -0.3220469221416083 0.9795901467255032 -1.536646545664951
Ar 1.630966755408325 1.066308325558361 1.440433621563391
Ar 0.8768988994991217 0.9826796895777641 0.6989242540390223
38
algorithm=ga size=38 seed=1 index=1 energy=-159.0720662069574 initial_offset=1 step=2
Ar 1.430149943508664 -1.007810567830447 0.5130542552820886
Ar 0.7572398298885017 -1.114246643808594 1.412577882925703
Ar 1.012502791620487 -0.4739929300160006 2.271059619058742
Ar 0.08546586982454554 0.6072826991574864 0.6609680497439695
Ar -0.06174841018898176 -0.6845518368747626 2.038871448176715
Ar -0.03402072013190103 -0.7071825477569906 -0.3687421796520266
Ar -0.7377596130680757 -1.337014878201347 0.1524412726737524
Ar 0.08935899000144333 -1.769560503485444 -0.533823759319613
Ar 1.568644502277089 -0.2821344122759864 1.301375307229166
Ar 0.3452552422879122 1.060904578140079 1.586537964392602
Ar -0.5006199900732655 0.2439524765171881 1.512529251689539
Ar 0.6985165039347053 -0.2195485657913387 0.2833129377674112
Ar 0.5189015906265244 1.583978592835231 0.6079395261390967
Ar -1.05184171594716 -0.362337271166992 -0.2905532976684868
Ar 1.436308863905165 -0.6460740040261087 -1.353388158469163
Ar -1.348500550569335 -0.5935329305911301 0.7449329567805223
Ar -0.9749732065270401 0.4426184370702393 0.4576681400861664
Ar 1.162070808531639 0.6562254156378907 0.8500804077105857
Ar -1.578064544955674 0.3274352012581133 1.36242498955558
Ar -3.023098406458154 2.733644094918199 -2.279544240712147
Ar 0.3111277350918885 -1.000327962747857 -1.355545725009136
Ar -0.6505142871398726 1.270917240863472 1.120881122983503
Ar -0.1807649939486539 0.330564467578281 -0.3077647617154691
Ar 0.2235360266014439 0.3160608534153412 2.373713538398054
Ar -0.296867260019985 -0.3996034357250859 0.6374144675085072
Ar 1.243844803575818 0.5559946255368249 1.955088853729623
Ar -0.424320127071421 1.336822775399257 0.02257562800853853
Ar -0.4489113368592079 -0.1637635449997982 -1.232124117227451
Ar 0.7986676616405574 0.796408670368313 -0.1715199880984689
Ar 0.9704684337659804 -1.065985654877625 -0.4611019619983621
Ar 0.6589229141734706 -0.04984492331433076 -0.8725920568807239
Ar 1.600611499841208 -0.1508414716751633 -0.2916480578430103
Ar -1.129650523380385 -0.6076612157207145 1.811225433807403
Ar 0.5156551368677091 -0.06428020396947683 1.361977564539828
Ar 0.3480994923009685 -1.291176944499165 0.4393230220113235
Ar -0.7697527593791486 -1.208489093045181 -0.9821404559275148
Ar -0.4489584868746761 -1.290118027738571 1.221287424937632
Ar -1.141028720183787 0.6950707730277422 -0.6298999449219411
38
algorithm=ga size=38 seed=1 index=2 energy=-148.1597831851798 initial_offset=2 step=3
Ar -1.167763262894801 0.8927733592732388 0.9033718433127909
Ar 0.4779162507708321 -0.3313182459465522 0.3090042883613776
Ar 0.4603556381362582 1.430646651808025 2.375931118001635
Ar -1.179469505978149 -0.3419041810367456 -0.8666852643858947
Ar 0.09831125095688702 0.3788299695212295 2.335304987168783
Ar 0.7045835011390579 1.799438942129153 -1.680612778245619
Ar 0.3484725844208916 -0.1030596005182463 1.370245478562682
Ar -0.5943493754001786 0.3909981260393934 -1.494106235503648
Ar 1.055994785635622 0.1095194857455058 -2.274247762752962
Ar -0.3116227538596104 -0.8872758167308156 -0.243740390098321
Ar 0.05264236879226348 1.03698550224852 1.419301135527403
Ar -0.9213455738857819 -1.401247215980565 -1.042087971238091
Ar 0.7245537397669507 -0.8567698978738664 -1.765505445076058
Ar 0.1396328127761797 1.10266519508359 -1.041715832167056
Ar -1.061830503143878 -0.5603685517968939 -1.945201623405244
Ar -0.2257374485781977 0.428678123164303 0.5950041545870055
Ar -1.108693876341123 0.1680583029122084 0.06846208978520878
Ar -0.6844764401316856 0.1825097778001816 1.58111090309951
Ar 1.033964067440321 0.6660773694659912 1.789522531097537
Ar 0.9106431855744485 0.4424549014846537 -0.4207557108425151
Ar 0.1949912352716076 -1.575153554142038 -1.025119958541499
Ar -0.2261178174069868 -0.6077927734457755 -1.26358552501017
Ar 1.504736989798838 -0.1821119152886511 -1.263640322927059
Ar -0.2632045922262354 -1.347452263899772 -2.038350851776073
Ar 0.8540614579797225 0.6377968859216296 0.6929000138463233
Ar 1.05441782321394 1.542185179657642 -0.6038664421407144
Ar -1.54000835798813 -0.2099291369023716 0.9924385183572488
Ar 1.215554741013068 1.202289157416289 -2.495935468580222
Ar 0.2271417418601827 0.8726481341687277 -2.124783236987955
Ar 2.812600644053452 -2.88360117668569 1.313421464210992
Ar 0.478962155370003 0.1477338852698935 -1.371342818893515
Ar -0.5217041752163118 -0.5843039451119295 0.7788466469709615
Ar 1.24358876467169 0.8749395773532925 -1.447213101618895
Ar 0.6993662940732532 -0.6538835646513028 -0.6776919629674562
Ar -0.1535726621659036 0.1765007134344515 -0.4762685337625505
Ar -1.352985190086889 -0.9060995850615623 0.08728663854546603
Ar -0.0368989985098772 -0.2177399661311042 -2.272828135717346
Ar 0.2035614485114509 1.221318104683893 0.02800334146630232
38
algorithm=ga size=38 seed=1 index=3 energy=-154.7079487432204 initial_offset=3 step=4
Ar -0.3338102896769374 -0.9571354088483998 -1.055596480178597
Ar 0.8899229642669328 1.594787372788351 -1.744619752042939
Ar -1.234711011745771 0.5056473517924783 0.2738930121993208
Ar -0.7193272822978865 -0.2871881912280195 -0.2623374984975393
Ar -0.7276872672943331 1.691278128555795 -0.2451810643779045
Ar -1.461522801256919 -0.9539689142344524 -0.736060825616575
Ar 0.9312514820768977 0.810907654461495 -0.9485645557732455
Ar -1.740450674149835 1.195207146038138 -0.4608316353190425
Ar -1.294525143452168 -0.04193502046531847 -2.311875986057612
Ar -2.000397484711996 -1.562431405568695 -1.470661155135237
Ar 0.05829725574099875 0.1134589582858276 -0.9376088130353765
Ar -0.03165860578458269 1.339211099973326 -1.190284488486242
Ar -0.7964746572814355 0.718884284501783 -0.6943629562378143
Ar 1.227215456009432 0.3417393453578236 0.8965718660431248
Ar -0.9651203322759155 -1.864012052628769 -1.089967183897736
Ar 0.8144878608492601 0.1121319554878887 -0.1036417251498238
Ar -1.103685389173393 -1.04621985779056 -1.849844596934956
Ar 0.2255971050684825 0.3014948596555296 1.481507047123239
Ar -1.695767504679504 0.6669161589737147 -1.470335320268504
Ar 3.271031644005968 -2.342056430927685 -1.836674180686143
Ar -0.6490901190920496 0.713423651511699 -1.820296163195816
Ar 0.4289420397703517 0.5829297990673433 -1.893585799399958
Ar -1.107095960338847 1.591957437938807 -1.296809849548077
Ar 0.5079956921415909 1.148878567567097 0.8431067976002335
Ar -0.2129730151509885 -0.3199899696799666 -1.973997095282796
Ar -2.016078609805713 -0.4280182775331278 -1.542390623782976
Ar -0.8618795421209191 0.196102823238943 1.245478840792649
Ar -1.541221530527871 -0.5898039977390637 0.3487547072850659
Ar -0.5598035281404016 1.192596228907129 0.7398029801859779
Ar -0.5061360339508537 -0.7266685334528993 0.7525657756454347
Ar 1.268583431908499 1.101019094454203 0.05807309808955539
Ar -1.775755076866349 0.07378073042492175 -0.5487859885290759
Ar 0.5828951837479662 -0.5370233173893052 0.8562720074917882
Ar -0.1092332711228637 0.2304627647147223 0.4436283093900605
Ar 0.1607462871572849 1.029397299590242 -0.1895155648609443
Ar -0.7154932546964069 -1.391820076871843 -0.08761685829225682
Ar -0.9999383311468396 -0.140260608190023 -1.276978401134825
Ar 0.218179506640693 -0.7885802960137233 -0.1352031391143503
38
algorithm=ga size=38 seed=1 index=4 energy=-152.0865189498167 initial_offset=4 step=5
Ar 1.447244785765912 1.052853991982096 -1.403269254014105
Ar -1.576392060688828 -0.3212635963996135 0.2412792510467535
Ar 1.081057686772389 -0.4080250270192921 -0.08082038700884152
Ar 1.140954352240064 -1.30646165015766 0.5395073392088005
Ar 0.3456127290164334 1.174828993681794 -1.582372540899127
Ar 0.3653801094685605 -1.27738489616454 -0.3149465173057444
Ar 1.46639648611521 0.6008936747541268 0.1793892138500101
Ar -0.6986856880692712 1.148296938932664 -1.074298351947378
Ar 1.607460130281017 0.06565670411375604 -0.9214875522117002
Ar 0.6020817417849067 1.35219813829086 0.3292406206665962
Ar 1.339174403015415 1.527828090230575 -0.4369971788294701
Ar -0.2171671494452168 0.8087023922427886 -0.1814342404027626
Ar 0.233817636936428 1.678677191998455 -0.6384359513724566
Ar -1.470435734185907 -0.8175274036948161 -0.7882600159778868
Ar -1.210853606746596 0.8874946200970654 0.2256800239121223
Ar -0.5860687145633389 0.0291841526670863 0.4973112128005736
Ar 0.210507098920399 -0.7410477482304306 0.6285152567638262
Ar 0.7931224188307567 0.86529169517274 1.314121408836983
Ar -0.2771723646665665 0.9571702521646112 0.9371672360435089
Ar -2.674988523825129 1.316633627632506 3.130215921258807
Ar -0.9520267803462521 0.1121896535240283 -0.5618783718314525
Ar 0.9848041755039985 2.060474035867419 -1.353289135629736
Ar -0.4415944804520842 1.786764840736896 0.2437469476515813
Ar 1.148152802661863 -0.2635621999136402 1.042745997833701
Ar -0.6913542166750355 -0.9535276534127327 -0.002635939682655449
Ar 0.7238341544954255 0.6158407608713705 -0.6430577673353579
Ar 0.05119516934119019 -0.001954807873732311 1.418769305340591
Ar 0.2290557798183513 1.889115102258837 1.201261468224286
Ar 0.04897780883616048 -0.2351518267480714 -0.3271414780047413
Ar -1.036273488034346 -0.1678818845377893 -1.633050063598064
Ar 0.8612123144939352 0.2295079240411748 -1.794101944795628
Ar 0.02427812606525949 -0.4984381230378346 -2.024171536208933
Ar 0.6947526613349031 -0.5761123219488247 -1.10896308071196
Ar -0.7893899266686926 -0.8264141182940944 1.113548863445273
Ar -0.1029465367180039 0.2493960751872167 -1.249396552102967
Ar 0.4691789325255804 0.308697581934781 0.4584662173119997
Ar -0.3941649524878579 -0.8610871691742288 -1.068272821056237
Ar 2.253252932435042 -2.821904108019191 3.273663030529479
38
algorithm=ga size=38 seed=1 index=5 energy=-134.8981720379456 initial_offset=5 step=6
Ar -0.08848832863088259 2.037035646012444 -1.182242408637441
Ar 0.04990160575444657 0.09886204473399168 -1.055003597130042
Ar 1.447842289585842 0.9396874189020364 0.8370510545873436
Ar -1.094866543583224 0.1212085039920451 0.3885204787382853
Ar -0.6240325719962454 -0.4743680655759806 -0.3880740351053338
Ar -0.01763361097088737 0.2747389553450811 0.025120295257462
Ar 0.5867454684704732 0.8875110405715904 1.524377929557762
Ar 0.06795398443121498 1.130128640905811 -0.6051173405015442
Ar -1.307834179943209 -0.9512918475777584 0.291141867198233
Ar -0.8695044845390356 0.5382046093357802 -0.589875463730582
Ar -0.6680059859701616 1.127676005956365 0.2885424081385872
Ar -0.2949619226026146 0.4335234747824155 1.066155447683758
Ar -0.5366390217319662 0.9675822405100818 -1.521602404984836
Ar -1.672167618704506 -0.2149059590547531 -0.5309061056921518
Ar -0.2248708703361458 1.598223878570363 1.15823867523914
Ar -0.1652363361472197 -1.002191049427084 -1.190167423670428
Ar 0.7209364816475605 0.05921068174464678 0.7781790829165016
Ar 2.138165033547402 -2.891470618919782 2.521924224867952
Ar -0.2019363593459743 -0.6016237446314826 0.6150323318606467
Ar -0.08700965786892843 2.016028449790397 0.03259019224538237
Ar 0.2981590517426261 -1.828348555736299 -1.764644117551276
Ar 2.693083655192746 -2.528932032831996 1.616080890420269
Ar -1.231655545358753 -1.221980315316797 -0.8387999610714253
Ar 0.5223758620411201 -1.710670094354534 -0.6751085465937864
Ar -0.6796034071287315 -1.50701543660339 1.00791993533888
Ar -0.500409671953659 -2.047115441939036 -1.011683340679799
Ar -1.629065275153076 0.6835984919134478 -1.329949779358399
Ar -3.252647472102979 3.302057353059024 3.042583567618389
Ar 0.4438712319825773 -0.6692171156251533 -0.2895038627691107
Ar -0.9567509452321047 -0.2178183760356425 -1.398688545157007
Ar 0.8523642383625091 1.891149313969264 1.099863803230282
Ar -1.019118179116048 -0.4577617955996715 1.31415879411953
Ar -0.4005067276046759 0.9430207106272923 2.040010795077358
Ar -0.9564342131152912 1.611601640374509 -0.666791251710503
Ar 0.4437325529695074 1.124281643411215 0.4440044186561606
Ar 0.3329521278452111 1.802043532164332 2.094826062040782
Ar -0.375291698272244 -1.464878380985512 -0.08086414148468103
Ar 2.3312187972968 -3.590335458547176 1.665046619816701
38
algorithm=ga size=38 seed=1 index=6 energy=-141.9054297133211 initial_offset=6 step=7
Ar 2.4635123374423 -2.170258465602174 -1.036546855479242
Ar -0.4898862615007182 1.170946326295239 -1.261847217413504
Ar 0.3235251618340655 0.07038850728240946 1.001852289859198
Ar -0.8061547164163215 0.002312737698247613 -1.488109821642215
Ar 1.782022319731233 -1.796406306499072 -0.1192005636304773
Ar -1.466675268475906 0.7527426290243515 -0.8733293208385667
Ar 0.3310282440057012 1.088333878759838 -0.5039010206982046
Ar -1.337178414421403 -0.3299482860851835 -0.5424750800742816
Ar -2.781653743886241 -3.162400738059947 1.273600875306418
Ar -0.8216370480259222 1.41152121959199 -0.2180436022495683
Ar -0.08838347288984599 2.088168328014358 -0.66387619909617
Ar -0.9159923780941711 1.397499769177822 0.8960031771301818
Ar 1.323373352500894 -1.628436383398349 1.865956818627262
Ar -1.439086107047319 -0.3896530347452947 0.9754103455073503
Ar 1.000153222571859 -1.49807959257332 0.8260292734066836
Ar -1.700778428445683 0.7016977522312289 1.265034055921782
Ar -1.301174005518985 0.5058061819257695 0.2444937121298176
Ar 0.7960261283357808 -0.6956187032910055 1.603119733606881
Ar 1.936948059356478 -1.997005442120984 0.987684517075907
Ar 0.2708649847423465 0.2485525422537587 -1.242629816757246
Ar 0.03844876308282186 -0.9854191086131596 0.8219346091445894
Ar -0.6847035578307429 0.3328604329147539 1.202713219587092
Ar -0.2871718527697649 -0.526769040747231 1.758547209932352
Ar 0.8689879045557294 0.875502207513628 0.4594114597169221
Ar 0.9557729043145236 -0.5251721744227678 -0.8925713229678529
Ar 0.4260526453319812 0.02847932213058488 -0.1251048450492824
Ar -0.8664727021984173 1.051520501576832 1.978829246994095
Ar 0.09796874604249239 1.125682467471184 1.342147018669104
Ar -0.2061882656498813 -0.6522674381259438 -0.7122489987118201
Ar -0.558647375814975 -0.2835496048623971 0.3003918681813298
Ar 1.860303197402127 -0.8834232859892363 1.24404448221181
Ar 1.154727485005603 -0.443550805988293 0.5324993223887414
Ar 0.2242763993788799 -1.624833281141945 1.706090189585099
Ar -1.287073482949735 -0.0126940220770574 2.037810915658512
Ar -0.2030726381977086 0.7595234494587624 0.3802873679285385
Ar 0.5918476290460227 -1.153342450476771 -0.1096244662064915
Ar -0.5197692343909357 0.3810808769459589 -0.5342031653376537
Ar 0.105354747722451 1.783105650868203 0.4148147702794036
38
algorithm=ga size=38 seed=1 index=7 energy=-146.1622625314386 initial_offset=7 step=8
Ar 0.3842673902219313 -0.7154800843383692 0.06188255440699025
Ar 1.492514361515444 -0.02647233219647341 -1.280794795742698
Ar -2.576055257658573 1.706472799404457 -0.6095781814650127
Ar 1.877138201999764 -1.043147196888536 -0.9492870382560452
Ar -1.168414988703727 -0.3642978723197687 0.8605459147603466
Ar 2.140839246629206 -0.9811225344057178 0.1428243798816359
Ar -1.589731027534976 1.192482227637394 -0.6936656921862192
Ar 1.416575472972583 0.6618356602897665 -0.3754716857556792
Ar 1.475292612018734 1.064932086134529 0.6492118523647108
Ar -1.155159035743862 -0.4726398966957904 -0.2102660087506158
Ar -1.826476693727747 0.144407715949272 -0.7358732563185783
Ar -2.047091869505437 -0.9399652421633721 -0.6513970074289742
Ar 2.332054943207846 -0.08729057097777386 -0.528663653201912
Ar -2.425901869845155 0.7516607875366439 -0.05978977647070145
Ar -0.7622407677222507 0.3862251104647521 -0.7724283155909442
Ar -0.263800799314175 -0.6133696277651199 -0.7841107085796988
Ar -0.5443351227774325 -1.156166735563482 0.3581902636293061
Ar -0.3290885013738437 0.07250836858739067 0.219874460913689
Ar -1.349610567125221 0.533895884257793 0.1865013829298064
Ar 2.383406406011939 0.7377985678994972 1.180713586723682
Ar 1.177291532360411 -1.470673223232915 -0.152628564383731
Ar 0.08749281710824668 -1.629201485406884 -0.440970414392901
Ar 2.218020374371998 0.8424214923930932 -1.104317993469306
Ar 0.7569345768629698 -0.9276821842574854 -1.032744178781019
Ar -1.014278932356584 -1.452269920626069 -0.6271647103475853
Ar 2.417690787547008 0.9077833611162497 0.02466660293157393
Ar 1.319301559159594 -0.3964839380283209 -0.2826452820227037
Ar 0.7787702676344206 0.2295541093695702 0.4405258899191329
Ar -1.230707159947302 -0.561256326848365 -1.312517132695713
Ar -2.123451648728245 -0.2745052140158202 0.2574912692308602
Ar 1.220624376221621 -0.7668302446138421 0.7617530859372537
Ar 1.913449882269952 0.05258890924814464 0.475723955715008
Ar -2.336742490455108 -0.3321364000401876 -1.558149743496442
Ar 0.4377789563841848 -1.617799010785394 0.6603099899110293
Ar -2.861634186960251 -0.1569234548352492 -0.5740098779223125
Ar -2.585918206138755 0.7533944455511881 -1.188340525667275
Ar 1.35746807433401 0.2085893962580349 1.390557886210944
Ar -1.641456387337628 -1.282079450000267 0.3313567810425518
38
algorithm=ga size=38 seed=1 index=8 energy=-158.2919654617751 initial_offset=8 step=9
Ar 1.882028902695074 0.2741954164360944 -1.250088990110571
Ar -0.06926558371281864 -0.7017881711560631 -1.458725979801351
Ar 0.9915716686536287 0.731620298720603 0.3958758935525507
Ar -0.240140502186372 -0.3384730707274566 1.180516690464996
Ar -0.1823738278071601 -2.531023636278425 1.317542827725938
Ar -1.141367465468277 -1.034225765228513 -1.166939115520204
Ar 0.8385415514762982 0.6150378056505772 -1.552972995867127
Ar 0.7510454227722493 -2.19717085747001 0.8142537924811662
Ar 0.04589141599078627 0.3347199839981353 -0.8582285047029552
Ar 2.07897997660347 -0.1152034392226663 -0.2078199234037979
Ar 0.459854544527423 -0.6651537312597187 -0.5345541171691998
Ar -1.12691835175775 -1.385855718058281 -0.1033360841614522
Ar 1.602116067767124 1.364151956700364 -1.313486563131641
Ar -0.2331418953565778 -1.494096560057503 -0.6865382553682432
Ar -0.8456303652962113 0.1756191224022481 0.4300721927815406
Ar 0.5354752999298855 -1.839126593994069 1.829850747270986
Ar 1.601626176392561 -1.453188830979921 0.4973723016822008
Ar -0.3530044532945004 -1.439046350430859 1.285177607025535
Ar 0.7319240464596664 -1.494002142181895 -1.202867109825365
Ar -1.158809511730288 -0.8056481567066944 0.80375035388199
Ar 1.031034822593129 -0.4528664531326309 -1.442404500693027
Ar -0.5883714793351861 -0.4261818449746921 -0.4740301305583778
Ar -0.8823780129657928 0.01868011598370244 -1.454900418689592
Ar 0.6498963850694248 -1.112153918530804 0.9835240202054267
Ar 1.814150776750801 0.9557602796153682 -0.318089627823099
Ar -1.61229286617157 -0.3726233389611617 -0.1847024697226645
Ar -1.012537154860954 0.5993238052454838 -0.5479036865554036
Ar 0.2048420273704865 0.01749258353471006 0.2320142836808755
Ar 0.7936749507715243 -0.01691908286471512 1.217306791903429
Ar 1.507035096004023 -0.9848346578253687 -0.5853548777344417
Ar 1.074887605609016 0.1880368176338459 -0.546018880830497
Ar 0.6854625375806207 -1.583597646316624 -0.06954573944492871
Ar 0.3553134053211287 -0.7623028069855061 1.982603737370601
Ar 1.16764195495829 -0.4641348857097952 0.3025031531622932
Ar -0.144302996731163 1.006179722400879 0.02832598253321976
Ar 0.7397337032512946 1.210320154688633 -0.6050820147727829
Ar -0.2609748920865551 -2.049936040181121 0.3152623601284261
Ar -0.1717544744216471 -0.9867685498016961 0.3100496400074179
38
algorithm=ga size=38 seed=1 index=9 energy=-152.4976001319757 initial_offset=9 step=10
Ar 0.1518302935634517 0.4598898607452816 0.3944840545539247
Ar -0.6000100846300388 0.1150177933005734 -0.2912575276530845
Ar -1.393541485702877 1.636776116761495 0.4928202367779682
Ar 1.680446171941827 1.744575488822842 -0.1299121271444993
Ar -0.1443638856003653 -1.254466625345328 0.946659844871952
Ar -0.1297763085724803 1.795925342869119 -0.9817616532464537
Ar -0.8983236928751455 0.6929232733460631 0.6456535319060134
Ar -1.980932648946141 0.6871333938135225 0.7583112222292664
Ar 0.8218066365201048 -0.1873732424106626 -0.7905438763467274
Ar 0.7935233564810509 0.8059511650711876 1.177168984674134
Ar -0.8144121169058387 -1.01631875167157 0.01854108692594249
Ar 0.208746910464093 -0.5782306777301578 0.03626402984645978
Ar -1.200565114994343 1.832258169155799 -0.5998891322816712
Ar -1.816950582490112 1.15536643045583 -1.24127734288592
Ar -1.482140322401024 0.8041312186464346 -0.244836272548996
Ar -0.4129655216717403 1.304442658771325 -0.05581556996458054
Ar 1.036432403168362 -1.176078050743901 -0.4018243221152832
Ar 1.256067229425695 1.82738818089547 0.9338093847725675
Ar -2.218581596101993 0.4747487807428807 1.811638092428016
Ar -1.288457069796731 0.04407718803605674 1.432745542626292
Ar -1.311177918245533 1.137769247248094 1.543665017351938
Ar -1.924897494764385 -1.171900533318439 0.2475790191449093
Ar -0.2504936395108731 0.5024800957088273 1.486874930218731
Ar -1.242995664755329 -1.005618915324386 1.08979637304563
Ar 0.4636602219016454 -0.2797893796514159 1.170289416477355
Ar 1.380068205830286 0.6927974167021811 -0.4628376039362895
Ar 0.9393461278744397 1.566542006861293 -0.9403878362479543
Ar -1.488813937688795 -0.169896446795267 0.2925561211063055
Ar 0.1114074881897949 -1.670726691180762 -0.02906930179073416
Ar 1.695397210364234 0.8788115961456325 0.5643954860950864
Ar 0.2675976959654832 0.7306978944731137 -0.6745918963102739
Ar 0.7003466294369806 1.333158332668455 0.1376194637473479
Ar 1.119981217826479 -0.04456627315430445 0.3161773640924278
Ar -0.4322288862501932 -0.5828708955735481 1.787784646142449
Ar -2.217426586118938 -0.4036504213026978 1.072744654775307
Ar 0.9171320426544392 -1.138728105095899 0.6763368736648213
Ar -0.749104062822035 0.8951033535641353 -1.057705514445326
Ar -0.5222395274053971 -0.2820565288405805 0.7479599465038562
38
algorithm=ga size=38 seed=1 index=10 energy=-154.8053010858983 step=11
Ar -0.0480055481608283 0.904880468688442 -1.995078497464776
Ar 0.1215984836884378 1.746501683744399 -1.244445851667347
Ar 0.8232572734236917 0.9097661895693682 -1.324487504038337
Ar -0.830337775117114 1.203197291297115 -1.300578888729077
Ar -0.9359233490161539 0.2251797964734852 -1.796999252754652
Ar 0.1269415219825372 1.879439497530024 -0.150458355086348
Ar 0.9831475864758271 1.157657232215721 -0.2420110994715619
Ar 2.344732021052404 -2.632900172460928 -3.03843414196909
Ar 0.03160322715971645 0.06393858387087874 -1.288261369268707
Ar -0.0004251454962259063 0.8740605989215131 -0.5728990394509976
Ar -0.9317172046689438 1.361296103386475 -0.2369221290459434
Ar 0.9099743992846884 0.07009233702232634 -0.6526804114617253
Ar -0.8805712906019592 0.3019397384343178 -0.6820796196360164
Ar 1.525968854652571 0.3304506109243892 0.245894321033442
Ar -0.7708591989559105 -0.6767071919003601 -1.169588175818852
Ar -0.2412661131424185 1.137198568336569 0.5466047198703339
Ar 0.84458377451089 1.100179599008264 0.8701645507458767
Ar 0.4165859512995324 0.3344250388773541 0.2552883791158156
Ar -1.601136228637206 0.5609635077247781 0.1182440777174321
Ar -0.07597995352812853 -0.4820817097746321 -0.305315426505536
Ar 0.9582008295713709 -0.6352148730368192 0.1711946759331656
Ar -0.645884382898909 0.1166822787680512 0.3829377613139388
Ar -1.63821695616966 -1.327258702380572 -0.9144260262716194
Ar -1.334791699750019 -0.5350061104537711 -0.205967145103579
Ar 1.843317060801185 -0.598765190935727 0.8385121179810167
Ar 0.9959466537960585 0.01803100872497084 1.139107838760455
Ar -0.6572428848959848 -1.432407768794859 -0.3886275774469848
Ar 0.01176940338379407 0.4520267200911845 1.327035075705543
Ar -1.086796284439673 0.6999560103024381 1.163084864053467
Ar 0.1061300655957329 -0.5033068903044821 0.8166557437424993
Ar 0.1959769145909991 -1.443787956596013 0.3147865161357742
Ar -1.596442461081329 -0.2622686167465678 0.8424095568232708
Ar -0.8098352804881024 -1.007802290106177 0.6047101293976382
Ar 0.9099704154565901 -1.141788948322463 1.154121453895729
Ar 1.472076411915869 -0.5839777520709056 1.921806979561552
Ar -0.7202496023636591 -0.3437497213470558 1.494151955985088
Ar 0.3417292027954777 -0.4759737609355563 1.882318864788771
Ar -0.1578286920251631 -1.364865207745189 1.420230928630338
38
algorithm=ga size=38 seed=1 index=11 energy=-165.141239833135 step=12
Ar -1.143499059674386 0.5185886461342403 1.685281152438475
Ar -1.49365930203513 0.5257027548348036 0.5380434132960165
Ar -0.8450432430242518 1.465330048087963 -0.1681754923115365
Ar -1.589364499208499 -0.4694350819687825 1.486053016335263
Ar -1.520283509484317 -0.6209194800132616 0.4137674035661678
Ar -0.5485536291702773 1.028686374751367 0.9045867110733752
Ar -0.03112078592137336 0.4087533539725224 1.717303853963942
Ar -1.06245085682149 0.6345354490119783 -1.012408584341868
Ar -0.579084447313005 -0.5077020540254747 1.929012446052735
Ar -0.7051927988020654 -0.1028665228748364 0.9131768639512468
Ar 0.6164369469264318 1.172323267735599 1.19815861707237
Ar -0.5605169059847456 0.4519842738242906 -0.0397351115527715
Ar 0.216933623946376 1.281538824946546 0.1593395673733615
Ar -0.03545167892431998 1.067869203198627 -0.8962267030105634
Ar -0.7877879590092653 -1.174616182780214 1.059086539258492
Ar -0.8784836267152224 -0.4197350168642028 -1.660981898681062
Ar -1.09914627495082 -0.4074839959842716 -0.5433833020714899
Ar 0.2368999658058577 0.3070241069254063 0.6956024623370448
Ar -0.223567548111329 0.5014552080597441 -1.874048865539995
Ar 1.192207901705353 1.7264924385422 0.3958162524481523
Ar -0.2060564918094082 -0.01303664611492142 -0.9452511152258716
Ar 0.2059961263946304 -0.6856013406406734 1.130126969565902
Ar 1.103459241930804 1.177637810849046 -0.5876274199367491
Ar 1.258571002482984 0.6284725031675934 0.4298351208565357
Ar -0.7998976528506225 -1.376386966224146 -0.01635265977578972
Ar 1.01837254617109 0.07091472195877288 1.380277805584301
Ar 0.5114327796035946 0.356044283484532 -0.288742943527723
Ar -0.2926360298758829 -1.100333122372301 -0.9386841364840335
Ar 0.7711553058565376 0.3465333252511324 -1.333971340134256
Ar 0.948645909176369 -0.4588246061005276 0.3337901228324865
Ar 0.6353528167314884 -0.5897992233761515 -0.7056312241266932
Ar -0.1418030092755681 -0.5196924641883931 0.06472983513456158
Ar 0.276506152982262 -0.5725667836740984 -1.747143052954605
Ar 1.517680617396551 0.04047864141874277 -0.5208471173504473
Ar 0.4114177296650815 -1.438749116666758 -0.07647159204941051
Ar 1.391129967290415 -0.605362416676981 -1.45799756721873
Ar 1.502239839557954 -1.125708503553147 -0.4132517632423096
Ar 0.7291608353382012 -1.521545712055967 -1.20705626360457
38
algorithm=ga size=38 seed=1 index=12 energy=-160.0986929428615 step=13
Ar 0.9833322816837433 1.110203925461537 -0.8240984404616677
Ar 0.7280523515239578 0.3290686591827224 -1.664551431098837
Ar 0.1802365715600402 2.008925683142988 -0.7989804736436759
Ar -0.06064811599792248 1.018807442354773 -1.278925309381189
Ar 0.8250646861964801 1.80156958649204 0.1283062935991303
Ar 1.503448621818951 0.03238358423011078 -0.4897457893027134
Ar 0.9704469394969002 0.692676843485893 0.2250647649122601
Ar 0.433831789588812 0.1826722770879321 -0.6476853754737762
Ar 0.08222646756213017 1.119884787284197 -0.2211860886232511
Ar -0.3755110625512275 -0.002378453056317459 -1.514811609783508
Ar 0.4106023294570771 -0.6986762186396827 -1.284846694721337
Ar -0.856157129326107 1.483930569186865 -0.6012729500918952
Ar -1.16143991037608 0.7926295832716906 -1.398768835557999
Ar -0.3092296237930451 1.996839837902717 0.2518585493714616
Ar 1.633201305028171 -0.009243906834393308 0.7566797492044
Ar -1.377787889360145 -0.2202719432896207 -1.010860743922323
Ar 1.144168872305288 -1.046993803431543 -0.5822577124219817
Ar -0.6185730636541241 0.378840051664462 -0.5414536476529368
Ar 0.1764988660465095 1.178900023379019 0.8688678758036664
Ar 1.665473453780952 -1.046424705512355 0.3826721679992554
Ar 0.7862269937730281 -0.4024042702976953 0.2052474199860347
Ar -0.648800033705374 -1.037668308673666 -1.209217510608085
Ar -0.0293577854128044 0.2472897042631758 0.3332598774095924