55
algorithm=ga size=55 seed=1 index=0 energy=-198.6246076852871 initial_offset=0 step=1
Ar 1.776164723289766 0.5472992816181654 -0.30906948810275
Ar -2.704368855217267 3.790338460332875 -0.2228159704562804
Ar 1.353810539934477 2.740025480658432 1.944096199940203
Ar -2.440471895510344 3.880582842182353 -1.309982284664899
Ar 1.628935820231126 0.4370847373359807 0.7268813341420175
Ar 1.01838455384671 2.076252461662684 0.1887955750989576
Ar 0.1227432388260115 0.2724189988933272 2.076277541231941
Ar 2.630148271660261 0.02265894494441095 -0.6881840434787663
Ar 2.112684321750814 1.139120736995144 1.413541002702747
Ar -1.930331699194111 -1.748467720464671 -1.109623327283843
Ar -1.0309521961886 -2.4008811068828 -1.221691792366544
Ar 1.548696097920033 -1.286283268170926 1.471132283667122
Ar -0.4565018924803125 0.6394369788117982 1.165459147703258
Ar -2.37784269347063 2.883559751867018 -0.7982283583265074
Ar 0.6203674253375869 2.262005430827944 1.241725729911118
Ar -0.1885128926039117 -1.941664515970946 1.880613623452083
Ar 0.8732772827836126 1.013818376421245 0.0184446489745493
Ar -0.8335885733772912 -0.2542798695701919 0.5953131672003336
Ar 0.9038023693559554 -0.487944709816191 1.911966452313394
Ar -1.293300358065524 -1.699381095964204 -2.05119578484664
Ar 0.8944152047101621 -0.05558656781123268 -0.0978167799738808
Ar -1.746626787738079 -0.7762610995694749 -1.623602784663793
Ar -0.6364986448553566 -1.185577444116985 1.186084031470661
Ar 1.076092380056934 -0.5103039270888607 0.8465471934323638
Ar 0.9120734602665429 0.6078488520771014 -0.995779922605096
Ar 2.604566085511794 1.191034392585105 -0.573482565111352
Ar 1.137526217712861 1.359084748755923 1.004376304529913
Ar 0.1232469398168697 -0.7671396054193629 0.2440792406400021
Ar 1.974565327417871 0.6845997637968332 -1.362181031734411
Ar 0.31487914608342 1.2730621831777 1.698271857565428
Ar 1.924707036487359 -0.237143666774366 1.517672253453283
Ar 1.727710008510022 2.244635949462945 1.032911763958581
Ar 1.570094583229266 -0.301230346905762 -0.951118096167665
Ar 2.334289659716619 -1.059331698813501 -0.6919315546497719
Ar -1.944996642124474 -2.57743934141636 -1.860633507912028
Ar -2.029518491905136 1.764504818582422 -3.779482015266722
Ar 1.325128997419483 1.647512840534249 2.016140746058116
Ar 1.206984323512287 0.56867669354997 1.787857865292021
Ar 1.520737769017114 1.530714808406567 -0.7154377224400063
Ar 2.762930435445496 1.873044637298491 0.9077868663822573
Ar 0.5813126950769089 0.4719516644906008 0.9214767002309622
Ar 1.925920088727376 -0.4420340943668051 0.1359742579453829
Ar -1.130366357567527 1.375929026203347 -3.231594995393912
Ar -0.09140840100052024 0.4048977538538625 0.09937565221088474
Ar 0.7880767177910966 -1.53509762080322 2.259970936666519
Ar 0.4283728095532142 2.198752575653365 2.329019861558357
Ar 0.04831629931805761 -0.3580201906456663 1.221176352181448
Ar -0.9097624098470888 -1.29067974999643 -1.071632496110497
Ar -0.8904682874403242 -0.208972568468794 1.736835083784826
Ar 0.4682699157822086 -1.345752288357016 1.215469685109216
Ar 1.945857561852707 1.427102727821341 0.3044764327326519
Ar -1.635820605944054 3.688882216505712 -0.5512582800129683
Ar 0.09789268019197409 1.453006552254997 0.6307324392627711
Ar 2.325525144362325 2.108877902339229 1.936588892092431
Ar -0.1016183293810293 -0.8722366095945692 2.155010712381409
55
algorithm=ga size=55 seed=1 index=1 energy=-197.4536876858391 initial_offset=1 step=2
Ar 2.210372428980448 -1.641935274223301 0.5493033808612757
Ar 1.303990943518533 -1.043597833030372 0.5281884554033588
Ar 1.852447982695382 -1.063310192656439 1.438001767335438
Ar -2.414496758917749 2.31758422965429 1.315485280593903
Ar 0.4508537094262284 -1.64802143463566 0.4248655953036872
Ar 0.08781315382417264 -0.9168849487690414 -1.136171185533233
Ar 0.3068942011846877 -0.5354376278680726 0.5929182144584938
Ar 0.4196624257798065 -1.87734152248797 -0.7088388710119551
Ar 2.788477753669079 2.578583463794844 2.284734336577209
Ar -1.034782634402867 2.657705437792794 2.442927760527363
Ar -1.517621395345507 1.68138367617382 2.773342621537178
Ar 0.763624586266975 -0.9333192771886072 -0.3371073916484566
Ar -0.6106034834958746 2.604279862672774 1.38489238749689
Ar -0.03541744494774932 0.04291116088571948 -2.629576621937102
Ar -0.5314215352917542 -1.769754198130978 -1.297606517459814
Ar -1.240210758156598 -1.482473944738353 0.3549325500168966
Ar -1.982177982736127 1.361115389435283 0.9578284881301959
Ar 2.104306612770832 -0.3556077386139904 0.3878937042153218
Ar -2.591331066981616 1.77237563785511 3.072795559821156
Ar -3.430041080226814 3.09152515341471 -2.616286922920995
Ar 0.1653547594482987 -2.586598821567104 -1.570214243496595
Ar -2.141107036968452 2.508500799127354 2.37109537638888
Ar 0.7814193668136998 -0.09366013332051122 -1.011601878337517
Ar 0.6991575285803532 -1.126955116745204 1.429028797610645
Ar 0.2601042643875396 0.8225654813243213 -0.7795266064056217
Ar 3.162368324939057 2.296601061019065 3.304799000775924
Ar -1.480619054616088 2.348879418979206 0.6925703155588252
Ar 0.6347156552916627 -0.5060446694860683 -2.00328655837777
Ar 1.819044953873407 -0.1622895653136749 -0.6812529748929569
Ar 1.323147826133574 -2.060578522384819 -0.02759085254906848
Ar 0.5338187410140494 -1.597662508977649 -1.834946866769259
Ar -0.07629196152081894 -0.1636623911938827 -0.3568976392300502
Ar -0.9840099543913374 -2.077847539538455 1.394219475594327
Ar 1.221959191460213 -0.1553491180399268 1.136833741869901
Ar -0.4483548348989582 -2.239273147119953 0.4366786086077643
Ar -0.4166201049522209 -0.8856472865752468 -2.074664562828099
Ar 0.1798164581389374 -2.118086261965905 1.378249412259982
Ar -1.424953891673718 1.940113316715965 1.709805653137757
Ar 0.3049316497297005 -1.107374591418315 -2.860093255439673
Ar 1.268373726731507 -1.001116351834783 -1.297702359662001
Ar 1.854691116667939 -1.197663118290762 -0.3942312514702697
Ar -0.3363680212661183 -1.235889461468099 -0.1672177403821098
Ar 0.6587534862926571 0.6046187342241784 -1.853174643072279
Ar -1.611609853719001 3.045804725670314 1.560694683235867
Ar -0.3384653613671719 -1.952714340738004 -2.392510800693888
Ar 2.908643410985403 3.365778922288506 3.075841328085302
Ar -0.2078556923685703 0.06186968270407651 -1.490350265605463
Ar 1.034119446881055 0.06354217835789219 0.04757159847969113
Ar -0.382350325056057 -1.243075422154437 1.011400737644029
Ar 1.279337061146308 -1.99097102803614 1.081563856664159
Ar 1.586465899280069 -0.02434850241460892 -1.750199337913032
Ar -2.354547032866614 1.456044189510399 2.028914136348567
Ar 1.447787536193517 -2.040830718997244 -1.112081330593263
Ar 1.364520205093722 0.8035331739528143 -0.9804679671007259
Ar -1.052758596995162 0.02532717686650175 -2.209790826337932
55
algorithm=ga size=55 seed=1 index=2 energy=-245.3576716547412 initial_offset=2 step=3
Ar -0.8217412363785532 -0.5868307732114016 0.6900600164605297
Ar 0.2067761992675203 0.8973657921464692 -0.3965654259908141
Ar 1.368002065288475 -0.1791844105801521 1.928493809500756
Ar -1.317429429742997 -1.130335675569497 -0.1832320287973883
Ar 1.214709475894528 0.06692713475527708 0.8618104468183776
Ar 1.026565419422325 0.8554902093426697 -1.089106833891753
Ar 0.6407753523658841 0.621637399198078 1.685675791170847
Ar -1.693874335823609 0.1105085844044055 -1.889094056929473
Ar 1.275435055271913 -0.1627114942634855 -0.7563813831337198
Ar -0.7196338334542394 0.4651759080842444 -0.7528339033255053
Ar -0.2273090154487717 0.5802580877997797 2.359341990692231
Ar -0.3428039128829165 -1.590107561308294 -0.4672567385566432
Ar 1.152042059713022 -0.6949897740951797 -2.584882110056892
Ar 0.1036329614318479 -0.4372584206562053 -2.361455992188151
Ar -1.222935373491687 -0.4501983360481349 -1.073662222174093
Ar -0.3972656469908878 0.8355708196452566 1.295641647418891
Ar -0.4645524764048033 0.38591695584646 0.2949084805490612
Ar -0.7460269831088715 -0.1438499200010218 1.699228997304477
Ar 0.8661654479433206 -0.9057349463400374 1.250373079022328
Ar -0.6050453080068863 1.560793580282509 -0.7178510345256401
Ar 1.512835040309715 -1.238289350616674 -0.8718054434087623
Ar 0.3424510731847526 -1.491861956396986 -2.264311445856649
Ar 0.7815580838402201 -0.7713125091509097 -1.567261593168733
Ar 1.417276432384587 -1.567286072651332 -1.927208079124542
Ar 0.7226532516618831 1.725355776308447 0.1071449730052145
Ar 0.3249843451231432 1.688128675422151 1.258214169498004
Ar -1.812012622114863 0.5171672506087477 -0.8773872251386783
Ar 0.8961117984689547 0.2234706213311528 -1.944295710225876
Ar 0.05652381071305718 0.6566092790663005 -2.503206700929882
Ar 3.179273029029435 -3.312863730628486 1.465182932608017
Ar 0.2404315359610455 0.0141178281063116 -1.053993967842845
Ar -1.345596893169492 0.4063113813008076 0.9373584113125263
Ar 0.4702117085528482 1.806159807892038 -0.9798123989853809
Ar -0.2634590600403967 -0.9207372819507843 -1.378303136376702
Ar -1.133117386526141 1.050441420383164 -1.57597716746228
Ar -2.206987131977035 -0.5381249864436007 -0.6367675638608786
Ar 0.5150786623916981 -0.9466928565457768 -0.5658702259368918
Ar -0.3514249299512057 1.482693170569535 0.3679018816755433
Ar -0.5955389741624351 0.09136061143335479 -1.762790226944497
Ar 0.1416966015384842 -1.044813677587054 0.4330139927248793
Ar -1.038191272439067 0.6474002986432624 -2.60863881111112
Ar -0.4328800539880322 -0.4970131742281236 -0.3424967256097153
Ar 0.4743569245044869 0.8223030293270773 0.6448689038141195
Ar 0.497951593155704 -0.05832862868147678 0.02188182231698698
Ar 0.286677191257988 -0.3766898968155655 2.081408350436371
Ar 0.5182447463337421 -1.790757614899995 -1.224468951008318
Ar 1.802852462220241 -0.4752399607924908 -1.689418836243883
Ar 0.1261059421213935 -0.1258691199148861 1.041370066333182
Ar -1.297169802632866 1.041276627034186 -0.01174029211662432
Ar -1.408859500721309 -0.0527587241795822 -0.05301399495945994
Ar -1.16567425106641 -1.535123653527306 -1.212071585220672
Ar -0.03503191303184486 0.9716646356218702 -1.466350459008542
Ar 0.8055989084253269 1.360252518575535 -2.037066980225069
Ar 1.28758645713093 0.7114388929591179 -0.05098365398035668
Ar 1.273311142222096 -0.8124471203259332 0.1923523786541569
55
algorithm=ga size=55 seed=1 index=3 energy=-216.4789504778296 initial_offset=3 step=4
Ar -0.8145641878349847 -1.171481858841058 -1.192609520235511
Ar 2.992475821533109 2.552698172787408 -2.936921162987501
Ar -1.094390573685298 1.052518067038713 0.2748027575023442
Ar -0.3530609673069312 0.3840397296110278 0.8744846152742548
Ar -1.092640552500389 0.9942871650135326 -0.8778997418203677
Ar -1.401783606597228 -0.4718470473468892 -2.044654360392171
Ar 2.486282218501414 1.662823011302379 -2.47580132687945
Ar -2.650329416277994 0.7090282927907758 -0.7442488386496845
Ar -0.3219494311287854 -0.2850786268480475 -1.919975172421353
Ar -1.634895614752094 -1.202366390916801 -2.842304784990373
Ar -0.6901733537357726 -1.625148709602767 -0.1034740466775474
Ar -0.1346711087800437 0.5439157013786103 -1.197220795321046
Ar -1.935466323468314 0.3363654069532685 -1.493067969465999
Ar 1.91835746379339 0.3073309901737795 1.924788252099957
Ar -1.668974739570539 -1.520692639133738 -1.768887006777823
Ar 2.212276083374979 0.7879834855411461 0.9317464198431075
Ar -0.6782398170754301 -1.286264767861017 -2.271209151406514
Ar 1.735120702389569 -0.1908725393531249 0.9597259605001535
Ar -1.966315251295631 1.415780019657731 -1.402376863511778
Ar 1.443924703995157 -0.05760302181211549 -0.7083145129653281
Ar -0.0900275849361996 -0.5196198704662587 -0.7805744373242898
Ar 1.87212614572952 2.50722301404219 -2.887978615537816
Ar -0.9733690692012454 0.635684236448395 -1.936605937601294
Ar 1.111827001935633 0.6947184238735647 1.285590170809719
Ar 0.2395724530168217 -1.167004657231475 -1.648732118286232
Ar -1.92406085347032 -0.6773728842647649 -1.077997379657421
Ar -2.414460698164904 1.055465602862621 1.500982953701959
Ar -2.147124476920102 0.6713436511609973 0.5032377168606871
Ar -1.81689719048175 1.691784273028338 0.7970474212401755
Ar 1.107859738819629 -1.066051282428221 0.8759020469018624
Ar 1.428355255204516 1.540531426046286 0.672608551848339
Ar -1.29988394202848 -0.04760453461910503 0.5842915906926286
Ar 1.790590009456119 -0.7661558391590054 0.03349366951840653
Ar 0.9759259663505919 -0.310779593094509 1.733979821606207
Ar -0.5930371214226814 0.2683401400711343 -0.2107780806925167
Ar -1.653295703722382 -1.655567834054299 -0.6484804590294656
Ar -1.013137567359604 -0.08688503711657028 -1.12997735281873
Ar 0.7201441228515916 -0.7304947682765022 -0.1144006195743241
Ar 0.4374883581792339 1.035601859372893 0.4693755323333282
Ar 0.4781124090390276 0.2974237655037481 -0.3357864550529542
Ar 0.09062828514538801 -0.7984227085836517 1.304062148594111
Ar -1.717274232749411 0.2565855295266379 -0.3937023449855441
Ar 1.814370390303669 1.41970237911912 1.742663146121369
Ar 0.234167810571544 -1.561456447630027 -0.6451180549116323
Ar 3.03007101796807 -3.369155047986824 3.447520347933107
Ar -1.945871622734441 1.408562623133896 -0.2940612602667816
Ar 1.193349991938504 -1.707750354671953 -0.08390925106524431
Ar 1.408107084079938 0.5246999846935366 0.2111652601431089
Ar 0.2356323560851638 -1.554099950496964 0.4719474643518412
Ar 0.6277933671738575 -0.06472669005683673 0.7019234562219229
Ar 1.16583516589805 -1.080571072349061 -1.031804760844644
Ar -1.346475137979294 0.7893237226280641 1.302795334331456
Ar -1.19105959173769 -0.6987246070897453 -0.2704343993697867
Ar -0.2764942709068237 -0.6045242364552836 0.3062556763759735
Ar 0.6736065396608024 -0.1545622682830605 -1.456355205390712
55
algorithm=ga size=55 seed=1 index=4 energy=-233.0535470317104 initial_offset=4 step=5
Ar 1.452186534246532 0.730942835035352 -1.738809280634081
Ar -0.3690910755811057 -0.8842303804314208 0.6763093143287759
Ar -0.001986583178816816 0.3012749006530188 -0.7212014885434006
Ar 1.090473190362077 -1.334373169819713 -0.3715809412058221
Ar 0.7648427898546973 1.644443364397018 -1.553677942025908
Ar -0.202024103681712 -1.455483503985685 -1.083635250013218
Ar 0.482888708830634 1.076650569675877 0.1345124101835094
Ar -1.376090092213257 0.001794792523348984 -2.563740238640308
Ar 2.52736260763446 0.8308817160083621 -1.530849360055417
Ar 0.4551281471395044 1.734711350923425 1.678895220426206
Ar 0.913314735101225 0.8852620933074317 -0.8065408476417553
Ar -0.5618017102325235 0.8421677452343551 0.03120361429464257
Ar -0.07372911970984571 1.40422276788703 -0.7581404342306043
Ar -1.693390006686254 -0.4925204983377782 -0.4739141417561126
Ar 0.7176616348181658 2.046403700988749 0.6279088836497986
Ar -0.7402403296274299 -0.2063799639511697 -0.05002179221704457
Ar 0.07333614000246898 -1.658316113412294 0.01750936323783821
Ar 0.67077451548523 0.6366504142033437 1.917259275071813
Ar -0.3125453099908102 1.785215192461199 0.4449249982863353
Ar -2.465604761723952 1.79827764272284 2.514201437995419
Ar -1.601298877771153 0.4027234027547885 0.1946817921866324
Ar 0.8677543207959384 1.926616273420652 -0.4684127692207132
Ar -0.6726048315700989 1.530605136327845 1.596407447231469
Ar 1.119886001138281 1.126615764993504 1.035605076791479
Ar -0.9288623559337627 -1.249253545805647 -0.215666816286567
Ar 1.56901393859579 1.185699931572076 0.03774050319826293
Ar -1.265019815595419 1.28836683987353 0.7279744571850543
Ar -0.06401555481466947 1.264705276435501 2.508453737273779
Ar 0.2318366270690523 -0.6671397432847151 -0.4165594378803223
Ar -1.138601694410257 0.4742977553240106 -0.816506398519275
Ar 1.902823732858706 0.4532944744542612 -0.7135034802801766
Ar -0.8139986099107609 -0.8408182108134774 -2.050188984174094
Ar 0.1681676650703674 -0.5117545981438834 -1.619345308107348
Ar -0.7834898275991861 0.2361462906158798 0.9250990820091871
Ar -0.7061545644667786 -0.515486712709622 -1.024213943057839
Ar 1.11072285777794 0.056527230950804 1.051784340192746
Ar -1.388257165485001 -1.325747105240042 -1.212140577372569
Ar 2.54880323240689 -3.192042139844832 3.703056498414216
Ar -0.4509422813152461 0.4443834512729949 1.931200740060596
Ar 1.01370090955473 -0.1458201208263005 -1.085329589402498
Ar 0.1723800219293518 0.08580686949487006 0.4149065067777629
Ar -1.63201978224333 -0.2709082996391546 -1.536686580211018
Ar 2.016593421067587 -0.2023793940500221 -1.589336286873125
Ar -1.600580395203796 0.8023062696014306 -1.778551607643506
Ar 1.108595639779298 0.1149652471227762 -0.03803265150170231
Ar 0.03509636893708933 0.9220007911970722 1.075028578183058
Ar -1.486669531091561 0.7194934420849696 1.647420850922927
Ar -0.6425669873900292 0.2486279354477184 -1.764470113230068
Ar 0.7278173397483459 -0.8555199064695429 0.553607926264846
Ar -0.1562594087464354 2.510505221739461 1.229911529051488
Ar 0.3699376663612027 0.6042879891208143 -1.708591633651177
Ar -1.453520237757169 -0.6263023952345232 0.6282682481418351
Ar 0.1656208225110007 -0.2991763835439667 1.430707430126869
Ar -0.8973931072589032 -0.5730575954602535 1.619350580429208
Ar 1.769299411660457 1.521982459690604 -1.021081367321844
55
algorithm=ga size=55 seed=1 index=5 energy=-220.3809344588855 initial_offset=5 step=6
Ar 1.024222752435482 2.073167408957099 -1.164399084169438
Ar -0.4563927446035754 0.4304047398203302 -2.527586020924241
Ar 1.188737968892275 0.06454309210436877 -0.5523874309661566
Ar -0.9934640922860605 0.1326277842603973 1.086498915009395
Ar -0.6894088257122324 -0.3533589954387265 -1.703450614474947
Ar -0.3473045853021705 0.4101690044448061 0.2676316122895784
Ar 0.8160123036382163 1.446331821053169 1.012192781292918
Ar 0.1116590173614936 1.467480019046434 -1.182443581083201
Ar -0.7311521839590308 -0.9752205993238561 1.231084959099788
Ar -0.8248710139163125 -0.5684763107339932 0.2237982661955389
Ar -0.979278749518946 1.197943326725304 0.6554511134731493
Ar -0.05859816719290833 0.7856931249258029 1.216264294475469
Ar -0.562088877373655 0.6786669066682264 -1.460799490226451
Ar -1.577050893940486 0.3187963976214376 -1.016677864908704
Ar -0.2630158665837874 1.866512568677658 1.193362619948549
Ar -1.010447419472606 -1.381097623879551 -1.522712429001011
Ar 0.7297523504398958 0.5103924726806849 0.4269985223800294
Ar 2.143122521010777 -3.03984417304281 2.681280414404457
Ar 0.08283641112983668 -0.2979611408024162 0.9503764519155098
Ar -0.7189440309007048 2.140627172721707 0.1581678835489782
Ar 0.305584749122672 -0.3386316884302032 -2.315172632946519
Ar 2.724872492900803 -2.587323003999487 1.833096488531464
Ar -1.401477105049429 -0.7268291061205199 -0.7194936595077293
Ar 0.8292661942894869 -0.9881880229886426 -0.8481443712407063
Ar -3.109547542805525 -1.933220507068132 2.953542562373594
Ar 0.092134383812688 -1.187102872707979 -1.680862423898208
Ar 0.5720303647102752 1.7256816543742 -2.139778589465734
Ar -3.686737627575561 3.737611503684198 3.452235338480445
Ar -0.01019801285319652 -1.279399669428513 0.3740434231374378
Ar -1.444938604948229 0.4708188710750744 -2.081159029274113
Ar 0.4719663838651365 2.375009319506181 0.5468069236967544
Ar -2.364588895062645 -2.692451880767996 3.31205000550352
Ar 0.3473427695237392 1.385815891373816 2.032446969470303
Ar -0.7882342328419981 2.089086925851395 -0.9468193566335927
Ar 0.9938035365178132 1.465085132785018 -0.2054847223582496
Ar 0.6406627382194832 2.374773773171251 1.638178826989568
Ar -0.3318658974933796 -1.0330560211545 -0.7003331756670329
Ar 3.08565817311154 -3.532575473907649 2.320552603509472
Ar -0.7008365315828295 1.101216835016039 -0.484594540307563
Ar 1.124921507136847 0.9729672696363139 -1.18654544473161
Ar -1.406306487584689 0.386905603825259 0.04813465374815797
Ar 0.2818704917613616 0.6589299028875338 -0.5490631142627136
Ar 0.03896170143016364 2.499039177337151 -1.556588557171385
Ar 0.4059431676013932 0.6747930367579246 -1.917626553508249
Ar 0.28322999924676 -0.3552854919668345 -0.1251596843761334
Ar -0.5561560013068357 1.612359430108371 -2.018531131887038
Ar 3.138505048888431 -2.557905007425249 2.876803068134702
Ar 0.254519864626167 -0.1620009284978091 -1.227656965280085
Ar 1.225859945787714 -0.05524565846496846 -1.671955298088351
Ar -1.765546348298517 -0.5305367689030059 -1.742765971597204
Ar 0.1873517732301683 2.251238442604905 -0.4691764312631987
Ar -1.434492429764532 1.335714556338861 -1.351070236019946
Ar -0.615972042701138 0.01130124413505609 -0.6597589291751729
Ar 0.04122645876183992 1.3920031479517 0.24853383084298
Ar -1.621567469919295 1.555842921213571 -0.2315572734838062
55
algorithm=ga size=55 seed=1 index=6 energy=-205.8678690792599 initial_offset=6 step=7
Ar 3.659735228643871 -3.344367187646945 -2.633206270692595
Ar 0.08444169993539019 2.826180710664884 -1.309770474183255
Ar -0.2585166572974559 -0.4425462484737758 -0.5041344526529495
Ar -1.56931505155528 1.40167101158719 -2.17130964022047
Ar 3.50915783176358 -2.710202122676177 -1.719377887645306
Ar -1.813561969886458 1.090274273762908 -0.2391200784110561
Ar -0.5409020514148937 1.427151114259412 -2.666553468888578
Ar -1.055562936185447 -0.252711909998853 -1.255183698021784
Ar -3.159604610246338 -3.615185758437844 1.530432294161607
Ar 0.1873408667856346 1.981018842892128 -1.98573684594315
Ar -0.7306852601124473 2.465396357484087 -0.6300884248841397
Ar -1.29326496382211 1.945936697196613 2.369204346726793
Ar 2.512585172417958 -2.233255899932844 3.493815471991847
Ar -1.603927507625836 0.2151093202115048 0.4313665759091423
Ar 2.147804015468154 -2.815053356925955 2.615726440904405
Ar -1.883259054100891 1.187550208769047 0.8534033997003816
Ar -2.620844403746041 0.535766058611867 0.3017028355245901
Ar 1.592735223321357 -1.901580487275548 2.9513721354235
Ar 3.240562396336622 -2.659557868858938 2.751084254782491
Ar -0.8340552193077032 1.386150927705787 -0.5504648165467637
Ar 1.718678418715587 -2.102668098869897 1.857396801213222
Ar -1.817570831964745 1.064352479785289 1.94143912955992
Ar -2.161669718632056 0.1951148299352158 1.344541858275797
Ar -0.2065451284781999 1.870497778587705 0.1963702968925393
Ar 0.01055454273609604 -0.2519977615461004 -1.64490316598321
Ar -0.2451227909677601 0.6240389244025948 -1.106585222571193
Ar -0.9977352782927894 1.624250058026081 1.347331459789535
Ar -0.7694381766264037 0.959981694546141 2.273499233645982
Ar -0.4836149611726849 0.0174999181945641 0.5154521619334339
Ar -1.995038158134347 0.05461832553552361 -0.5948449007419937
Ar 2.595891674904722 -1.793992509371471 2.466225459108549
Ar 1.695231877113831 -3.203991380434772 1.677474691073754
Ar 1.044073412318989 -2.751042620414023 2.47396252714436
Ar -1.253666123851782 -0.5629792468722444 1.096756025680795
Ar 0.8459314217239869 1.599068581427801 -0.1727682154539573
Ar 0.6503402485346486 0.08033438697672213 -0.7293276407988393
Ar -1.458320792569094 0.7852493654162901 -1.24624615629784
Ar 1.013818345926813 2.172677781306442 -1.191337254286608
Ar -0.4329259496760117 -1.070242157239754 0.4504693715298071
Ar 0.06437099114261242 1.776394401531463 -0.9030525949799149
Ar -0.9630077359461739 0.357786429099616 -0.3826953528505063
Ar 0.4213462120744648 2.621921903841623 -0.2969242835637652
Ar -1.336046467894831 1.9923597302048 0.2232391252479221
Ar 1.163781260343884 1.492552653582195 -2.086431772885647
Ar 0.05060970997020799 0.8217108573769114 -0.1076967202009129
Ar -1.076026991898777 0.5024579960100994 1.335217945795305
Ar -0.8705962799202298 1.037754338287865 0.4472257934712632
Ar -1.471525042393635 0.01682860667411751 2.210992581951055
Ar -0.8614080550916613 2.477988668344628 -1.76580026032685
Ar -0.8051699748841399 0.4713978211403357 -2.073515277153614
Ar -0.6683848698785423 1.449496104314213 -1.60157136893031
Ar -1.272221435246372 -0.6563359381548939 -0.1221043327733808
Ar 0.2190017218208494 0.8733556972005966 -2.052454321075643
Ar 0.8071233082020612 1.058649820006814 -1.143522584488612
Ar -1.588480561145284 1.888002284604584 -1.120487605596784
55
algorithm=ga size=55 seed=1 index=7 energy=-223.2953476804378 initial_offset=7 step=8
Ar 1.704815599414695 -0.8482305745943993 0.4202852938802635
Ar 0.9257999020935355 -0.9868697265278286 -0.3312968856797038
Ar -0.242419601289291 1.585672015961983 -0.0806670128886829
Ar 1.207592700024562 -1.093586159947567 -1.356405398761598
Ar -1.552143116191428 -1.153046104389604 0.6728880490917848
Ar 1.468387252619527 -0.03724513528716834 -1.650355088811121
Ar -2.030997630875769 1.871610943339392 -0.734841390328653
Ar 1.072119196127953 -0.03324256958156434 0.07539257695982163
Ar 1.4481680941779 1.007428100346399 1.463985333819525
Ar -1.54803930914494 -0.685745178127438 -1.099380082213851
Ar -2.71151815815658 1.172789972374057 -1.333091132784817
Ar -2.136441224754989 -0.3144265262941991 -0.2145898353894237
Ar 0.623887140420301 -0.163986554995631 -0.9623619597306575
Ar -1.594780759709686 1.083277299993934 -1.365441051160992
Ar -0.5076750041139277 -0.2628949186425014 -0.9859868929898336
Ar -0.4728956686146685 -0.9883670718804537 0.7616750244275162
Ar 0.2308772565599503 -2.552582344774297 0.1293816555399328
Ar -0.771217646402601 0.03363896399212429 1.006136587079921
Ar -2.000749646994423 1.61358451637437 0.3901927063385461
Ar 1.206044522573322 1.966437298305985 0.958436100714833
Ar 1.088328601504091 -1.823968565937402 0.3415198233070436
Ar 0.7925248722478955 -1.993418312418744 -0.7242450561418585
Ar 1.423487268497544 0.6296603004217611 -0.729699454366082
Ar 1.822545702884384 -1.54785511072184 -0.495929389220549
Ar -0.846794477282065 -1.967992186009659 0.2946480084165933
Ar 0.3950016561857436 0.7142912819445019 -0.3423713079776672
Ar 1.785383497260572 -0.4251262214209172 -0.6586802976104497
Ar 0.25816913563788 0.3210240953021672 0.6945453564912484
Ar -0.8177162943147173 -1.25989792550508 -0.5462524935116376
Ar -1.363184696374959 0.3015002713983441 -0.6825319606465354
Ar 0.632555610272047 -0.8566102817577135 0.7050919168638075
Ar 1.140817385700677 0.9888857788522538 0.415291590210857
Ar -2.264808288748559 0.1474946984270123 -1.278585646359851
Ar 0.1787382292239 -1.845467525599648 1.011068960285657
Ar -1.608498917546265 0.4776567853494885 0.4116912114437193
Ar -0.8745572330411218 1.899439320045315 -1.077199416439909
Ar 0.2285452329475525 1.399655857423428 0.8765151540081463
Ar -1.881720283124673 -1.420812394086444 -0.3349385820319963
Ar 0.6756673199641333 1.70403298006697 1.894621287468609
Ar -1.207828927503305 2.326096666703996 -0.1006578777545411
Ar 0.13345605763188 -1.15196960018635 -1.054517693861222
Ar -1.073625907630026 -0.4278457088262589 0.0401633539781032
Ar 0.07584219982638557 -1.500922749024876 -0.01068654577766289
Ar -2.256911326095925 0.8250195245718457 -0.3969131523393992
Ar 0.1196438468397692 -0.4006312095441583 1.528536653218572
Ar -0.5699004654831733 0.5277868787941078 0.04974273238626759
Ar 3.183796396918669 -3.341626001607709 3.407684370288419
Ar 0.4317740296910913 0.6389150321493637 1.705313537453001
Ar 1.193575195108413 -0.01553457302466185 1.150418317097527
Ar -0.3091807035459608 -2.191012173542258 -0.7686298504275142
Ar -3.381864282143622 3.230861148113104 1.506521348610535
Ar -3.644466402006973 3.335429430153505 2.593292792129285
Ar -1.250424761460855 1.259142975000752 -0.2858478766483185
Ar 0.01737339683755098 -0.4126287316607308 -0.07137802110136228
Ar -0.489184233618187 0.8659979562170602 -0.9940821481080389
55
algorithm=ga size=55 seed=1 index=8 energy=-227.2872956401656 initial_offset=8 step=9
Ar 0.9248026826925242 0.5188776272726374 -1.094271719409176
Ar -0.7995825118091451 -1.212359998562364 -1.629871916616435
Ar 0.2922263074230833 1.12100208606502 -0.3136651145155574
Ar 1.78385444205323 0.08247843573743116 0.6624692918148177
Ar 0.2688600228741585 -2.003242537596818 1.755915312746331
Ar -1.916864530742284 -1.297898969333965 -1.395037759107987
Ar 2.0132430555457 0.629491116921652 -1.308134605032328
Ar 0.7811424861045128 -2.172002383064956 0.6913674891929082
Ar 0.9433459989219302 0.6506558278017261 1.167262252522888
Ar 1.469853790223366 -0.3517304749774578 -1.453764644144766
Ar 0.9133637727093412 -0.6044855186274035 -0.5479644582733025
Ar -1.263689204006385 -2.173480413523235 -1.224424393148459
Ar 1.414217872855701 1.128313591101018 -0.3116585128712816
Ar -0.8422781307293341 -2.235793412188972 -0.179363424125473
Ar -1.705820687267285 -0.7650502117042409 0.2531146788404722
Ar 1.197066400972369 -1.443530622620356 1.439286271307365
Ar 2.109374462577391 -0.8710214091879094 1.087504220919596
Ar -0.6498121365980531 -1.243618919373615 1.52903084331833
Ar 0.7274561014509643 -1.389711330229536 -1.266465144293212
Ar -0.7419008120314151 -1.266862339187296 0.3920305256648386
Ar 0.08069612338314497 0.09186887199821153 -0.6268699737559543
Ar -0.1514106289345581 -0.9461886790294856 -0.7896477191780782
Ar -1.546089018809961 -0.4255616748952473 -1.955100083679662
Ar 0.2928497149848741 -0.2175374847508464 1.130865550908997
Ar 0.84186904238004 0.2400484886816331 0.1554421240878219
Ar -1.736835491804298 -0.3596077124615202 -0.8302907277715077
Ar -0.7467255653257067 0.7805449644472449 -0.5073168476846535
Ar 1.817581148249725 -1.782923672872496 0.5908717207373128
Ar 0.3766108611212333 -0.9095760413189525 1.977497688115017
Ar 0.3633044964923345 -0.3785501126726788 -1.556764368933697
Ar 0.1087471568017635 -0.6162119694951352 0.1690697888395901
Ar 1.149292900629995 -1.599322240256339 -0.2214764398322236
Ar 0.51000009252796 0.2179295803274321 2.120602765130765
Ar 1.106666713869695 -0.7806398022165575 0.5556136679312819
Ar 1.63346814577552 3.472259917508966 2.060146545557249
Ar 2.494211997655233 -0.4213431289773211 -1.001616281384915
Ar -0.3535008950646183 -2.184119041825328 0.8392778046220647
Ar 0.1155374812327297 -1.706714519267452 -0.05824842419920376
Ar -0.2027399122976411 0.3937751982125469 0.3729401502621583
Ar -0.184350061857188 0.74364931722276 1.394259300208483
Ar 1.802453450714905 -1.290216951828451 -1.02809621966724
Ar 0.2363506484936778 -1.282907540700755 0.9552836514591173
Ar 1.721165119015119 0.08594390811111237 -0.437361658513483
Ar 2.422466288378611 3.134945676778045 2.783764231248634
Ar -0.1957620223830477 -1.995285591753848 -1.065731957587918
Ar -0.7844263370056479 -0.3312085155289429 0.9033435342436471
Ar -2.947028231494073 3.583276644983626 -2.41138039811804
Ar -1.161971284936792 -1.271822478865323 -0.6025739237296088