55
algorithm=ssw size=55 seed=0 index=0 energy=-168.3674159978241 entry_id=0 visits=2
Ar 0.5051845671968902 -1.061597929054251 -3.003135211967285
Ar -2.539263513293056 2.120481501919083 2.574750228269433
Ar -0.2384646964608737 1.781423927440992 1.272614111695383
Ar 0.8979024714819213 2.166646951396949 -2.84759442968591
Ar 2.667661828711435 -2.111133963730697 1.505434515919162
Ar -1.886663737024249 1.52856015650724 0.5121943910826114
Ar -0.4326515422500474 -0.7302392536170316 -2.479483478025931
Ar -1.816204853971484 0.8241320538294017 1.386782490880655
Ar 0.8480732282785263 -0.3341914721334437 2.474158380172552
Ar 1.796964590016189 0.256918372733727 2.548599668136376
Ar 0.8922706998293624 -1.713748318849503 -2.218182767730643
Ar 0.5631162350714998 -0.3548478510852651 -2.150733385284298
Ar -0.7339056354884371 2.02212326857451 2.269097275456267
Ar -1.147995835980637 1.281476619622434 -0.2858316745766973
Ar 1.240412722980682 -0.9666782994094356 -1.506988933858973
Ar 2.102668816056124 -1.159253197442044 1.441234306034643
Ar -1.702563970769901 2.567304694488143 2.013606278645491
Ar -0.6776588322495501 2.175610033341718 -3.758383829252101
Ar -0.9453149381764941 -1.487591745233107 -1.814961270631131
Ar 1.462744690618501 -1.698352092801139 -3.155068660743417
Ar -0.1691716739442247 -1.814546261372795 -2.538601945137183
Ar 0.4486963356250244 -0.2961984966298228 1.438384849876695
Ar -1.820383699353296 2.596210049340799 0.8897303132842385
Ar -1.708654579138774 1.436517096713673 2.330597837181986
Ar -0.9114849583453203 2.102539482648589 0.4341743923996637
Ar 0.1637357984377011 1.352918698419841 2.206832935819247
Ar 1.810359722581409 -0.853905657541503 2.488080917431551
Ar 0.07026607069009466 0.7298529422842565 1.250811289694257
Ar -0.8125086669509791 0.9618700084864614 1.875828039797305
Ar 2.779108902839336 -1.337177570872975 2.308165316012654
Ar 1.275074722266922 3.112319785698685 -3.317890905935429
Ar 2.756379004340459 3.657731892684057 3.476489688902762
Ar -1.507438348626041 2.247396841823104 3.053156548577511
Ar 1.489795392741272 -0.7645742138204966 -2.583454101776639
Ar 0.3832394728099139 3.157319758921925 -2.648583144390708
Ar 0.945686017518052 0.6236578725015229 1.917708972786908
Ar -2.382208263885102 1.812062773016438 1.500366914565604
Ar -1.303970480968297 2.382716519805885 -2.850476907638909
Ar 1.540756940057697 -0.2331916620765563 1.585290953789759
Ar -0.5860461901315281 3.15707617292696 -3.206253023838688
Ar -0.05741607699447469 0.260263526600605 2.260225238243466
Ar 0.1181413745508445 -1.20862458752207 -1.632711542264175
Ar 1.985864485153163 -1.618030015985087 -2.105229949817224
Ar -0.8918294600345353 1.009233693283813 0.7601110333217637
Ar 1.557030538719178 0.05300705408877179 -1.842060875231805
Ar -1.304706971582009 1.781295242243481 1.384115560307018
Ar 2.590847488201335 -0.2819265057743392 1.952077766846907
Ar 0.3101385947765377 2.666243691675801 -3.652612675732267
Ar -0.2044095132443335 2.214238523551175 -2.745789249924811
Ar 1.028672277969391 -1.201652963763918 1.782015424648614
Ar -2.069342984017198 -1.542523882335983 -1.919020965172112
Ar 1.801862852667441 -1.918528462797804 2.192140035316546
Ar 2.727337674828408 -2.420398531128042 2.575294318721045
Ar -1.519675226824031 -0.6228217277515778 -2.236585012861905
Ar -0.799577467366633 2.740923602122981 1.375932527408236
55
algorithm=ssw size=55 seed=0 index=1 energy=-239.2195768034879 entry_id=1 visits=2
Ar 0.7094624365500336 -0.2600429419307673 -1.327799709615538
Ar -2.085758320926056 2.282094670429955 1.685594308331078
Ar 0.4288425050113396 2.120041953241502 0.8021132542707886
Ar -0.1070830599274258 0.3646544063387577 -1.460382149213672
Ar 1.680514520064686 -1.335058881008506 -0.2369494740867775
Ar -1.081304037566343 1.342914277283686 -0.07985371342051523
Ar 0.4747263376800638 -1.282074402276125 -1.572876898800296
Ar -1.017606671165492 0.9181298941104672 0.9984190057920138
Ar 0.0282435355070052 -0.3798151114629226 1.75512028349079
Ar 0.9709898198379596 0.005756930387958771 1.277900495460546
Ar 1.649071565205639 0.1936201215587009 -1.576687665675999
Ar -0.3180051251664162 -0.6680630021656762 -1.148042338702778
Ar -0.2685216168202749 2.476279369957143 1.592948883771939
Ar -0.2221816352030285 1.077168685745198 -0.68223203581827
Ar 0.818359702929045 0.7512148792601567 -0.9291505360130449
Ar 0.2289224295032395 -0.4465609115700629 0.4844566158826329
Ar -1.254863805009041 2.719808827626583 1.103321185715303
Ar -0.664506126248117 -0.6505913161193905 -0.1084017381270229
Ar 1.500601890119534 -0.9760358175420131 -1.248163626580906
Ar 0.7289041743323708 0.4594679340719256 -2.149395786077619
Ar 1.146281943393938 -0.5980915871147457 -2.248563412244004
Ar 0.01157877064393214 0.4322203105380583 1.046776290298865
Ar -1.231644936646134 2.458628145632115 0.01075643622406963
Ar -1.125176681648862 1.740311632054852 1.716128575797181
Ar -0.1982204325442603 2.097634740146487 -0.2399800385095135
Ar 0.7231502389847235 1.932831599808163 1.870788695181095
Ar 0.6882442042375081 -1.081930664528777 1.253769591170466
Ar 0.8760763135042425 1.124299170084647 1.104275928644108
Ar -0.1231751017032253 1.385454760660717 1.494132134120818
Ar 0.7136640355471643 -1.602501010352872 0.302497840219627
Ar -0.3293034225612178 0.6646729072308916 -2.461395897771587
Ar 7.018746879994286 2.529469830782925 2.986237708196752
Ar -1.17566755056062 2.726818106566308 2.206695245251274
Ar 0.2116402830238862 1.361750932163397 -1.682649099340366
Ar -0.9172361383508918 1.062657692770381 -1.554438581252238
Ar 0.4706532708266136 0.6454024496162978 2.034272004962562
Ar -1.722717028023359 1.756283418020669 0.7571773549121356
Ar -0.6165027177795482 0.3927824141137766 0.1784283005455373
Ar 0.8451828136842348 0.4314139613443705 0.2431330838536879
Ar -0.9565830584915622 0.2071754925506887 -0.8148512094150799
Ar -0.6427476394539889 0.4961508472210227 1.927294078175109
Ar 1.438547763125591 -0.09821252212861839 -0.5277927534858676
Ar 1.341644064155909 1.274220067827035 -1.737135423409754
Ar 0.0750524370655991 1.210166776174533 0.3356309391918491
Ar 0.03697409024721366 -0.4273889692426914 -2.192869076173195
Ar -0.6464504950438694 1.903768358735227 0.7351136221188707
Ar 1.289748197276751 -0.5995970165578685 0.4385497272492671
Ar -0.9887505100978811 -0.07264017977785517 -1.891185931578898
Ar 0.1339637774996798 0.05473488913512332 -0.4671335054552598
Ar -0.7690968319673773 -0.3266968617814197 0.9878621907120814
Ar -0.1394129870559229 -1.556995268378807 -0.4509422900662783
Ar -0.3029667881779651 -1.350341159224138 0.6941072532929149
Ar 0.8969309066848768 -1.891177166956127 -0.7700193771407799
Ar 0.67439364267129 -0.8629811287024054 -0.4622050109007704
Ar -0.3151484312258927 2.915133611595699 0.5339648257904807
55
algorithm=ssw size=55 seed=0 index=2 energy=-247.5397129555521 entry_id=2 visits=2
Ar -0.09594968901146671 -0.1839462823810196 -1.519560565857474
Ar -1.106244571587712 2.724922248886306 0.7761507996525064
Ar 0.8457102878492389 1.343913136881433 -0.8713699338758295
Ar -0.9575978645061545 0.1760365380542903 -1.029017687612828
Ar 1.656537204315318 -0.5267779295573753 -1.476716552679773
Ar -1.454290785492647 0.6912280620289014 0.5747711180290546
Ar -0.04205899928674831 -1.242544395286044 -1.621135939079289
Ar -0.6536479770127259 1.028160890424769 1.271873378313578
Ar 1.223184008091094 -0.1608968331106342 1.440692423556346
Ar 1.72647706403256 0.1780488422039829 0.4879514495695546
Ar 0.2451900247579662 0.5926687713607308 -2.251031558645772
Ar -0.7028781934438223 -0.8470831505807065 -0.8191564368777602
Ar 0.5540600763206646 1.970711226733216 0.01030378775078427
Ar -0.7839863611143916 0.833015719725579 -0.2400179674016188
Ar -0.05055810394107724 0.779122690274738 -1.121721870918255
Ar 0.6797628222170016 -0.5881922661146077 0.09636645624895834
Ar -0.8821862520029643 2.524501412547029 -0.2776279344128972
Ar -0.3670443686486263 -0.8624028636146621 0.2561634089803244
Ar 0.7337833255697503 -0.573212877720494 -2.085575417913408
Ar -0.8017215708550434 0.5418298617930805 -2.021326119693538
Ar -0.2778167797857085 -0.3600794804624433 -2.56005807714399
Ar 0.6834116248732965 0.3275440300028856 0.6291517238249039
Ar -1.504699595307081 1.619272150746137 -0.1536999276926576
Ar -0.3791455809707265 2.093576948516923 1.358591149065759
Ar -0.2686039202077438 1.732123951305445 -0.7066937802925536
Ar 1.16535551208632 2.030297839706437 0.9356764127359728
Ar 1.500879250703393 -0.9268361532758451 0.6781070317237369
Ar 1.266051913594704 1.174102049001636 0.2177257130298552
Ar 0.3358443766383296 1.334075168140809 0.9282862368078656
Ar 1.229470509939664 -1.470051116118247 -0.3030714742090979
Ar -1.826954777361091 0.386981930961092 -1.621577994229026
Ar 8.473561260750619 4.572583007368122 19.1606660114547
Ar -0.05610836513488241 2.708441473971758 0.4849545381729002
Ar -1.144483156442141 1.234370234562532 -1.186622339352875
Ar -1.820997020189819 0.5944942293344173 -0.5084130441093314
Ar 1.293570002294823 0.9377762793508952 1.298014886193421
Ar -1.441989142210911 1.716593914163172 0.9622317744214803
Ar -0.3781499887134177 0.2352591460213818 0.5984587509729532
Ar 1.001626703657913 0.322956728489163 -0.4106799911137314
Ar -1.170756619611796 -0.1889378408278713 -0.03620519299385393
Ar 0.249055353483031 0.450528754714427 1.598396315245709
Ar 0.9304329135706183 0.3497139182669156 -1.469906299333304
Ar -0.2807862018559667 1.539229374189254 -1.838787555890984
Ar 0.2209613703918206 0.9646777282015131 -0.07109987899367359
Ar -1.097119900398894 -0.5450786255448331 -1.823280960788937
Ar -0.5168204337092349 1.694009642970075 0.3572960849714701
Ar 1.694695353016633 -0.5029530688726713 -0.3742049580847441
Ar -1.787926548283836 -0.4973690450979271 -0.9148404842999961
Ar -0.07959020137717313 -0.03312234624765543 -0.4132830863767872
Ar 0.2551099001623764 -0.5648216148475544 1.107349412041146
Ar 0.1738996606003139 -1.420407030167935 -0.5261178600301568
Ar 0.5050161182071182 -1.534620939437045 0.5658702123671784
Ar 1.028362190165066 -1.493783094162599 -1.41653453248409
Ar 0.7067608011648944 -0.5868942925634985 -0.9571986109845729
Ar 0.1418247399585609 2.755581491056732 -0.6321464620084289
55
algorithm=ssw size=55 seed=0 index=3 energy=-247.7209213681475 entry_id=3 visits=2
Ar 1.001471615773142 0.4362697956289736 -0.61636542992009
Ar -2.327757088659419 1.804457849205721 0.09104665060766497
Ar -0.3064391140537085 -0.03382914238794083 0.7456157049001844
Ar 0.3193754286288518 1.17266638032729 -0.9348257333372403
Ar 1.316031004008355 -1.25018724824204 -0.06838895887302801
Ar -1.339509282242243 1.284297441156816 -1.501674131907234
Ar 1.673834295493202 0.07101578120609503 -1.349601224312557
Ar -2.034778193349606 0.494326619105758 -1.103454013746
Ar -1.378849041787015 -1.629237900153552 -1.255241380106375
Ar -0.7460173470175018 -1.632996575316059 -0.3233542252550162
Ar 1.246861049704249 0.6219881221366644 0.4526096994174078
Ar 0.7123982056136715 0.5212535879161772 -1.699932767014168
Ar -1.406605557793713 0.2116799548022487 0.7047300056560249
Ar -0.6825410325862618 1.021392541016935 -0.7043014134411979
Ar 0.1699289421644278 0.5874454433301911 -0.01225258271085086
Ar -0.0986834744638096 -0.8972189041706102 -1.23049363676197
Ar -1.363930326517678 1.812197079579719 0.5884910984711973
Ar -0.1514113470732767 -0.1276025539917724 -2.018695736309626
Ar 1.74531120366482 -0.2489707825187683 -0.2577699437857416
Ar 0.9833752352941817 1.469196330870209 -0.1543625063081169
Ar 1.962038879624085 0.8547683484261182 -0.3896046631451024
Ar -1.033729718270486 -0.7127993210259895 -0.7727476989228897
Ar -1.261162010710545 1.914621104673998 -0.5118548771883724
Ar -2.646325955168796 0.7274221885228327 -0.1885289432279728
Ar -0.6833726655748895 1.007217319274602 0.4379646588347361
Ar -2.482674810772078 -0.03233133120701911 0.6229341271671219
Ar -0.3085089404773837 -1.934681656518835 -1.338193902432626
Ar -1.110177391595813 -0.7800656144289788 0.3338727446896215
Ar -1.856666362835478 -0.1536310297615553 -0.2614340148051891
Ar 0.7671451696657847 -1.56031430576136 -1.446471179726504
Ar 0.6343818863030091 2.19864382658004 -0.9176322516273168
Ar 27.45250829865053 16.64518272878608 34.27241773063648
Ar -2.139064629098792 1.009395202759233 0.8055392024593662
Ar -0.1305444056982315 1.77031407584022 -0.1430490899634805
Ar -0.4102784106769458 1.922834227878295 -1.256513643879688
Ar -1.864861534314037 -1.257709479758643 -0.3320665626981736
Ar -2.235689677455762 1.537675561342465 -0.9361084943626564
Ar -1.033662099749641 0.1855988595595194 -1.346139657371804
Ar -0.1339256865185589 -0.666677640871372 -0.1627424735127298
Ar -0.3304147866841921 0.9186638669637969 -1.758686102377956
Ar -1.949618829427586 -0.6001501532856046 -1.300949336919234
Ar 0.7607722936732909 -0.3178148628342388 0.2984881944323272
Ar 0.3549617692603471 1.302448878392117 0.7663989314842276
Ar -0.8256007316460564 0.1387748096744975 -0.1977904996891288
Ar 1.359860583618111 1.294378433866542 -1.21616553255553
Ar -1.600609017540165 0.9362205595818633 -0.1558031391280239
Ar 0.3412024225439161 -1.59134281424626 -0.4569982009409879
Ar 0.5138188876890581 1.632520069784183 -1.890691712493461
Ar -0.0207300186789029 0.1347320793546182 -0.9619001810276651
Ar -0.9889068131904948 -0.8125673894646821 -1.87099403644405
Ar 0.8462810181078189 -0.5506309475947428 -1.826382241266128
Ar 0.01475038881327816 -1.237889268197201 -2.235648106970329
Ar 1.699691588379179 -1.018573493110877 -1.125499552925981
Ar 0.7916700392144946 -0.5916250104801067 -0.7525188500908614
Ar -1.194142504309365 1.047586503748519 1.40008846047282
55
algorithm=ssw size=55 seed=0 index=4 energy=-251.04996993092 entry_id=4 visits=3
Ar 1.040797113135656 0.2584639435548176 -0.7660020589206967
Ar -0.3444522467082659 2.087946158412958 1.480035074153236
Ar 0.71979895529699 -0.2067143483762661 0.743088157589251
Ar 0.5637387700858084 1.209596751261635 -0.8071692439764083
Ar 1.121764106722367 -1.536087774531808 -0.9394543130914551
Ar -1.06894565956315 1.824148506866279 -0.3342993819518267
Ar 1.117425971035201 0.001413179520403267 -1.846377269342574
Ar -1.953808594974023 1.311461144007942 0.0565546216263244
Ar -1.702231596114454 -1.048619017973866 -0.335155482147711
Ar -0.7228872457910042 -1.320730923426085 0.06206949663671758
Ar 1.688176374853795 0.2590466784245082 0.140117363487698
Ar 0.2839955830836145 0.6439901627406585 -1.659908268308785
Ar -0.07840764016032564 0.2666308254281912 1.492490886867721
Ar -0.2181451048731266 1.221571011450655 -0.142473385164113
Ar 0.7193742393892618 0.7308686909698966 0.1609482929322992
Ar -0.521579946204842 -0.6396312219839387 -0.9450311797994071
Ar 0.7690642269298775 1.885005304713266 1.21783880588565
Ar -0.7425172767204135 0.2764538978695918 -1.525155509038511
Ar 1.664574177980779 -0.6108241029660106 -1.150152805664957
Ar 1.566084817164116 1.204542247196549 -0.4391061546527646
Ar 2.087500487523914 0.3968108673008299 -0.9798042873853402
Ar -0.9444781308498756 -0.2648602612521728 -0.046026050338908
Ar -0.2938549329051518 2.168462183641651 0.3883547982489405
Ar -1.879967845902163 0.9504068782127677 1.123434053179559
Ar -0.006057846350514506 1.228659172140913 0.8880787356382854
Ar -0.8564113783862213 1.09885297267478 1.55515696822965
Ar -0.9946202416243195 -1.594957231254655 -1.012636753499862
Ar -0.3660948814982679 -0.6740217313840194 0.9023664954452597
Ar -1.102543708891062 0.1138724445129724 1.094064779344131
Ar -0.09637423871396708 -1.383614452188647 -1.666693300143824
Ar 1.13031664324726 2.113751438788454 -0.9144765158617956
Ar 10.07883018568938 7.997464099543385 15.12602594944444
Ar 0.188888148010086 1.24416466149485 1.966558817711522
Ar 0.710431588564217 1.807705785295725 0.1051549685880716
Ar 0.007263371198978973 2.15218399489491 -0.6944641168875667
Ar -1.488649894953304 -0.8262334189995103 0.720068268343831
Ar -1.282006223944888 1.9269424449863 0.8494610871099106
Ar -1.113840439608931 0.6932356283315488 -0.5462564494808989
Ar 0.1156210646105559 -0.6033032851421015 -0.07111575511488964
Ar -0.4741872943258011 1.296813785730003 -1.195593814790042
Ar -1.837975237372322 0.2250766490792056 0.2462794688229001
Ar 1.183613890175495 -0.6785802373795086 -0.1717076625363454
Ar 1.554031415299978 1.31063666251317 0.6358349904211816
Ar -0.2032991325950832 0.2919798561851444 0.4288541683464986
Ar 1.337670905235013 1.054453025375056 -1.528496744401608
Ar -1.018613247643584 0.9729176764985753 0.4775672295198393
Ar 0.08437079108420423 -1.542497687892141 -0.6163427239924089
Ar 0.4163207294587355 1.761533979271837 -1.714502671891176
Ar -0.05348029724167715 0.2969771219404831 -0.6643862613776045
Ar -1.548145334583009 -0.2108439127373975 -0.9882297754077534
Ar 0.02529319632192942 -0.359476643467364 -1.991602624930161
Ar -1.041839085528384 -0.7747117581840726 -1.865292038321358
Ar 0.9462570569088355 -1.084676511600436 -1.955798789276211
Ar 0.5348383187454766 -0.6151708728059044 -1.075387910594398
Ar 0.8898539762146883 0.7398537086827153 1.26506440042238
55
algorithm=ssw size=55 seed=0 index=5 energy=-251.6641238899983 entry_id=5 visits=2
Ar 0.8196755247942259 0.7083991910247085 0.9220558505427064
Ar -2.414616417935251 1.245569725641193 0.1169232118759402
Ar -0.6563279799271914 -0.7506398077428198 0.7746679693128616
Ar 0.2326226359153056 1.468293208382309 0.480540490998509
Ar 1.046464622056983 -1.049109689687461 0.7332766798873842
Ar -0.802888471121188 1.827572082491295 -0.8897148480106417
Ar 1.875513905507872 0.5854523652405119 0.6238320811733148
Ar -1.07844143054651 1.106800362854227 -1.676573591986552
Ar 0.1173988879840651 -0.7312567474404927 -1.930527339058901
Ar 0.2293889630506329 -1.19311452327252 -0.9312887784035763
Ar -0.4887615229753155 -0.1469136630555389 1.722603498634778
Ar 1.182039597008672 1.248472244790051 0.02619240521457742
Ar -1.59386990060582 -0.3950428218732051 0.1417128873784506
Ar -0.5746704867192945 1.140685868344967 -0.108194728290509
Ar -0.2757245761814119 0.6138955717507117 0.893671688241562
Ar 0.8446838084451685 -0.1536088029705925 -0.7918630009360309
Ar -1.754220456657491 1.180319308500432 1.074051034490886
Ar 0.9233668457600289 0.9202413528604788 -0.9993509770676556
Ar 1.382403914858931 -0.1548578540449871 1.303985660674561
Ar 0.1512885602283801 1.367387340668109 1.565625904500976
Ar 0.4704844777527165 0.3604364039937487 1.883724752701582
Ar -0.2095782383443832 -0.2012689768651739 -0.9059489127071358
Ar -1.437648818601217 1.805851074486616 0.08823271847672065
Ar -1.878297540918347 0.3614103663137206 -1.558001739863834
Ar -1.479505277272736 0.7099602005969629 0.1531439191922483
Ar -2.222672375327697 0.282128153967274 -0.4932000870724966
Ar 1.13383562444433 -0.8903199834243491 -1.515954012199836
Ar -0.7698259076286519 -0.9621608371967106 -0.3318225998959066
Ar -1.607793533527355 -0.5303465297245654 -0.9493788730246145
Ar 1.966611691941967 -0.5561177646755754 -0.8580146666528278
Ar 0.09597426122459042 2.360995659249895 1.071877050846365
Ar 15.17782855209207 6.084380432916656 6.355194029325024
Ar -2.325822938074132 0.2704786153839002 0.6627745004457621
Ar -0.7493680746102473 1.599094818682957 0.9105226483010387
Ar -0.4076075729546896 2.249712001926252 0.07188065789752025
Ar -0.7767595192286902 -1.030879938766273 -1.422461230190093
Ar -1.765188643759362 1.251765083595744 -0.8030275947100463
Ar -0.1853052221236757 0.8725202206005179 -1.090681010128436
Ar 0.2170173430538746 -0.648128230021297 0.006418913194981442
Ar 0.2873094024965984 1.687326497036308 -0.571690589896453
Ar -0.7615301771575683 0.04570693083687274 -1.78680997257168
Ar 0.3180775271523577 -0.2722438557720863 0.9993165870226211
Ar -0.8666916286411065 0.9068841547413593 1.76121669813466
Ar -0.6105729627184023 0.05218102625990124 0.07178620695774396
Ar 1.099938650987364 1.760208462672778 1.059966941541619
Ar -1.104893481086452 0.4063374279096373 -0.7993184697895835
Ar 1.173950574460753 -1.080798891775203 -0.3451022701397157
Ar 0.7695913439131535 2.348884128853942 0.163517383527044
Ar 0.3201428361691323 0.5555382165345355 -0.1370689639946057
Ar 0.4302648967849779 0.2638119685536324 -1.727346045648448
Ar 1.742274300649348 0.4263620633301793 -0.4632793558211618
Ar 1.534610640130539 0.1787030584193085 -1.566202769742858
Ar 2.026216564801961 -0.5439136817647902 0.2709254937737517
Ar 1.086744393601029 -0.07087653810619836 0.2428309098174192
Ar -1.26665579268274 0.1561716947330425 1.036722233425279
55
algorithm=ssw size=55 seed=0 index=6 energy=-251.4543091550855 entry_id=6 visits=2
Ar -0.8288487265550242 -0.2124888012585124 1.253670664151396
Ar -1.649018203643801 1.522010527060662 -1.612186101591172
Ar -0.5816894416476495 -0.8763761433900714 -0.7299516545769322
Ar -0.9481770520572768 0.8045920192247152 0.938731580308576
Ar 0.2790014312170431 -1.46518375030141 0.625906604289754
Ar -0.4274179906001205 2.055051624003587 -0.1767673310213418
Ar -0.0606463699566783 -0.3450705853548046 2.051242480704333
Ar 0.5365760655174504 2.12831843188358 -0.7069531398403714
Ar 1.693905186172718 0.5611194747981539 -0.357988264086197
Ar 1.319044919029131 -0.4801334074354562 -0.4213192017726213
Ar -1.55279128041328 -0.9782842248041469 -0.2247085519201031
Ar -0.07242816679313911 0.598242070123256 1.493986190733297
Ar -0.6259895454899314 -0.06484039310863847 -1.60913499507151
Ar -0.7938676852582384 1.044737186567634 -0.0583426053736021
Ar -1.103718800957215 0.03101667596722764 0.2129823979879369
Ar 1.02464379377552 0.2479812400470177 0.5018562200203313
Ar -2.030244093085599 0.7975380538914065 -0.7864764324697601
Ar 0.8281586691076271 1.094805353420323 1.144397407681179
Ar -0.4080645572810487 -1.209112497060265 1.448321374423034
Ar -1.845851702354532 0.2293058959153404 1.096159480021682
Ar -1.642943450396957 -0.8013810754116562 0.8344687337614529
Ar 0.6453242308580787 0.3653587372772854 -0.4983411211700841
Ar -1.478562477118537 1.733129967407324 -0.5080443243149922
Ar 0.3049967940397135 1.636681305358915 -1.703978362934581
Ar -0.9852948414933004 0.8727602239490529 -1.070656402574105
Ar -0.6025245497571393 1.045410829404091 -2.039196198347175
Ar 2.02475862441233 -0.1768437328668302 0.4127555564432727
Ar 0.3700127554893408 -0.4727343042782482 -1.154135623668514
Ar 0.273806119254191 0.5459098845983162 -1.535694351335257
Ar 1.763528860339983 -0.5723934147418439 1.456640501307203
Ar -1.78860215967906 1.301767526150304 1.395047314705738
Ar 18.97714642197088 6.933889867915746 -2.160401610755629
Ar -1.615993460713143 0.4208910065032725 -1.81488320296331
Ar -1.81563545114197 0.9702072232270404 0.2816144908625011
Ar -1.18229839305564 1.829120404316736 0.6140378849318263
Ar 1.29984975366484 0.1549060719523482 -1.341217840970445
Ar -0.6605434666772761 1.90502036878088 -1.252335394205628
Ar 0.703834187008979 1.28051549996135 0.05739113030816145
Ar 0.2840064911266064 -0.5574387165904076 -0.06948849809253491
Ar -0.1250117343800507 1.493382411932968 0.7317881937271266
Ar 1.071174898099498 1.208712420048029 -1.021351560213816
Ar -0.6308913417667866 -0.9094455318347758 0.396370981233841
Ar -2.155610442594629 -0.05622482733577736 0.02185744683573647
Ar -0.3773894519804581 0.1594753991245942 -0.579425676914148
Ar -1.117778318714421 0.5558779845277374 1.97653236846869
Ar -0.007572833590177412 1.194618839397745 -0.7409056647968253
Ar 1.139729615035444 -0.8188382143409088 0.6067673228817002
Ar -0.7113669451068213 1.561781283064068 1.664654702979987
Ar -0.02594085847668983 0.4640535240222028 0.3920565273153279
Ar 1.703809320217481 1.258079264684822 0.4720725160651554
Ar 0.8886715987848695 0.07390556685655188 1.6183982864653
Ar 1.81162669213947 0.5165871188044719 1.254422173284829
Ar 0.7291079370432806 -1.054209867737804 1.620771232058937
Ar 0.1832055596845443 -0.3962619396025328 0.9715005766629261
Ar -1.412724731322244 -0.101161708750518 -0.8361496499340935
55
algorithm=ssw size=55 seed=0 index=7 energy=-251.6865780432489 entry_id=7 visits=2
Ar 0.610553205316303 0.6749144087382527 1.162603840210276
Ar -1.528050607352264 1.970681164603094 -0.8132355437587805
Ar -1.142751241305402 -0.3709055708368467 0.5325178836095255
Ar 0.6575167363723945 1.465272486625569 0.4699842884586273
Ar 0.04138070811921665 -1.003898120246517 1.272075147692894
Ar 0.4508322904441688 1.815956673498857 -1.215445702561275
Ar 1.522480468012962 0.1412495614560496 1.443699705913965
Ar 0.1666115870385357 1.035783729456714 -1.938341458281158
Ar 0.5709624814970781 -1.133787580732032 -1.641079979457083
Ar 0.207033572813975 -1.356989485477893 -0.5970442644337718
Ar -1.178185243453455 0.2662843399358955 1.500635423164879
Ar 1.505846580797787 0.8018665652199503 0.5241421654438532
Ar -1.510161552253094 0.1997567497310265 -0.4097314584984897
Ar 0.07860100926212786 1.24900027993721 -0.3962515932865299
Ar -0.299950364333382 1.042899746994444 0.613352149180561
Ar 0.9852911376137454 -0.5937528174000561 -0.2057061031631353
Ar -1.274899806649341 1.849598999711784 0.3613730323632615
Ar 1.533152747263393 0.3345039211322174 -0.4618602663108399
Ar 0.4879248308534912 -0.1639448943559902 1.847608395773044
Ar 0.1694537954959718 1.648387617402539 1.44473107410246
Ar -0.2374106808688038 0.7153784219406483 1.846443006254986
Ar 0.1388901463363658 -0.2964050599822068 -0.7772806774125397
Ar -0.4851133983801934 2.174370808998596 -0.4988202507873362
Ar -0.8407634675082521 0.6414396877701001 -2.099780320317508
Ar -0.9558377574267866 1.16304323690236 -0.3786470825247871
Ar -1.530593789415356 0.914759801756487 -1.256807259135001
Ar 1.287192873251084 -1.412176505680898 -0.844264716029511
Ar -0.8668123400634818 -0.6883360829603005 -0.497848138795304
Ar -1.208857541154657 -0.1475863928942692 -1.412577905081948
Ar 1.748765381704409 -1.326385816228614 0.1795942735010793
Ar 0.7806233093537431 2.441044425576941 0.9174659706899383
Ar 1.615607246011819 4.679539021873008 5.16005874405527
Ar -2.025968366345996 1.171855093409141 -0.2211680459105304
Ar -0.2254890949964766 2.121739952339132 0.5472171798547372
Ar 0.5937796562417021 2.284410243126898 -0.212193173944628
Ar -0.4663218968262716 -0.9457369298957518 -1.463414862970826
Ar -0.6348369051153118 1.560870314344142 -1.383868087055139
Ar 0.6500654390190045 0.6208934574788401 -1.059487862600696
Ar -0.06252569479200117 -0.6911845003621025 0.220318776029876
Ar 1.1777052015475 1.361831323022322 -0.4654893260490168
Ar 0.1249480326903079 -0.06704639543789681 -1.828516437536226
Ar -0.2405092714027552 0.03623723654830437 0.989778304677281
Ar -0.9620125898155929 1.418703018917154 1.360065247586281
Ar -0.4821577858683131 0.2538047995192281 -0.06868103881607292
Ar 1.291664446839896 1.514120901782431 1.361028015520968
Ar -0.4409537349845997 0.5455896395565054 -1.0971569774029
Ar 0.7042472986249551 -1.414231014933008 0.4666628665164226
Ar 1.619296955855781 1.941102764722212 0.3638273946780664
Ar 0.5702771839257572 0.4122745078343815 0.05908608707849428
Ar 1.152632222119554 -0.3241969898737105 -1.253299275525822
Ar 1.80564097820071 -0.2556420681398777 0.4394355591211255
Ar 2.030997282263368 -0.6208152012235538 -0.6159089603212952
Ar 1.470533059429866 -1.009803502692655 1.225235132196022
Ar 0.7718553250297113 -0.3283470932175218 0.8032302130627839
Ar -1.331718659108125 0.7303452666760691 0.5381054709430215
55
algorithm=ssw size=55 seed=0 index=8 energy=-251.6982421852255 entry_id=8 visits=3
Ar -0.3356355360932768 -0.8042199925322278 0.9568413687394263
Ar -1.72814346109806 1.867826750645483 0.01573586207272741
Ar -0.8569027769687939 -0.4633998140601986 -1.084742272155813
Ar -0.3660786761189965 0.1651842297525541 1.364655571665668
Ar -0.08933855493699094 -1.590651495450455 -0.6027000920950286
Ar 0.1123745341624152 1.797341814619394 0.9956300083089906
Ar 0.480317418585829 -1.477949407570711 1.219457337769529
Ar 0.4765842514500785 2.085617398928316 -0.01316507582134047
Ar 1.619918992403017 0.6484324563375409 -1.208195891418938
Ar 1.091193913772561 -0.3068364744345002 -1.276323023401972
Ar -1.63341802216042 -1.021973424723 -0.3715738851132533
Ar 0.5746872071156214 -0.3707020112491284 1.417634409330805
Ar -1.051629178195505 0.6628859987243043 -1.14875436206238
Ar -0.3126182583578595 0.9099358725893359 0.5819827263331828
Ar -0.9770010805676925 0.04622980741526744 0.5195942827455782
Ar 1.15706868734011 -0.3567444437388694 -0.133795915696523
Ar -1.9462175807107 0.7334935352790332 0.4355420504342774
Ar 1.259523590945204 0.2227395641031581 0.8072217253783888
Ar -0.325056882778541 -1.785976216206409 0.4647626203042268
Ar -1.249153037284999 -0.5071274623248843 1.474062557525918
Ar -1.288748940747387 -1.252487549378038 0.6597652547532922
Ar 0.6602226897428192 0.4547383511958805 -0.6027855103660565
Ar -1.18412104624952 1.488652303690694 0.8969307695264919
Ar 0.2910776581245851 2.071301869541076 -1.116674867472359
Ar -1.08275866095066 1.009614569188191 -0.1117802661054004
Ar -1.031083570851113 1.763429601571201 -0.8774364967159213
Ar 2.056614231599259 -0.2603508662200023 -0.72822188382591
Ar -0.05695459507501007 0.2699442871948131 -1.410366057653333
Ar -0.3696577340440583 1.342872823211751 -1.640619523913546
Ar 1.891729829131326 -1.193808080286342 -0.1010043163557794
Ar -0.9040597009031478 0.2161665806441802 2.302189655601841
Ar 11.80387188946612 18.82760437964342 -5.244203258994467
Ar -1.991918594278388 1.047781932127069 -0.6895204860415677
Ar -1.405090928488227 0.5595864704945188 1.382213845621327
Ar -0.491412966451774 1.163508007439101 1.709442307180072
Ar 0.6657951448640593 1.075247965022718 -1.522831509820398
Ar -0.5878277227604368 1.951984964194819 0.1231921027588426
Ar 0.7071075126214837 1.049709354246881 0.2951260145190544
Ar 0.2080492745459395 -0.5419003445641252 -0.7219561925128404
Ar 0.5013446752662772 0.7951806185087563 1.331046927713958
Ar 1.121545592606392 1.465434856734198 -0.6275873645238944
Ar -0.6197449538996187 -0.784486229295707 -0.06994422141305966
Ar -1.95862174614173 -0.3820047048112875 0.5632162439071555
Ar -0.409850989059898 0.2420147855176395 -0.3692620849825031
Ar -0.2847663469296015 -0.698560560719102 2.044548850367561
Ar -0.07307477840682686 1.238779319018264 -0.5381934981596072
Ar 0.9893790457632742 -1.296246377773617 -0.6996310257947719
Ar 0.2088205579038053 0.2991058440433538 2.270736521273726