13
algorithm=ssw size=13 seed=1 index=0 energy=-39.6476856862588 entry_id=0 visits=3
Ar -1.031218327735736 0.7361996336953512 -0.2491706851749119
Ar 0.8095988494458349 -1.172837428588614 0.3358702457297571
Ar 0.6060590886544294 -0.2805146166498614 -0.307034458927982
Ar -0.8122653237496874 0.8159606827549255 0.8401057626430919
Ar -0.41995395665483 -0.08705248841659806 -0.6840976550958185
Ar -0.2101961521017803 -1.001145336238076 -0.09018286354190348
Ar -0.8235684719728539 -0.1836284420086323 0.3496685766822085
Ar -0.6097545403127133 -0.09674337339304044 1.441315628677419
Ar 1.034427495431704 0.3238405022698997 0.5199555669192912
Ar -0.5842284246039319 -1.105189333953041 0.9499786373405453
Ar 0.195697411585833 -0.3581493033220082 0.7323682136510087
Ar 0.2151081872212468 0.6315054228664381 1.222162357304023
Ar 0.001850793440852744 0.5451008959904098 0.1303767245067493
13
algorithm=ssw size=13 seed=1 index=1 energy=-41.04458337904654 entry_id=1 visits=6
Ar 0.6873969774791291 -0.485110321136013 -0.8633183205065156
Ar -0.2817575182843273 -0.160819926974652 1.632401124442434
Ar 0.4908593975641635 -0.6792610601810998 0.9881794849707569
Ar -0.1477033381056506 0.1609006052729949 -0.5101060241996263
Ar 0.04374004204383545 -0.8427983045000101 -0.02838538476541843
Ar -0.6066188563801148 -0.9398571857393618 0.8806445798367734
Ar -0.9969047669923976 -0.4224323370539212 -0.04879957249563002
Ar -0.9322841167644361 0.698677607407597 0.09690004525520608
Ar 0.5915904913947626 0.4356127008594516 1.159040187331668
Ar -1.22441297324522 0.001912356798072366 0.9753606084021073
Ar -0.2223304896114691 0.03524367095912292 0.5708136262071479
Ar 0.1933542399906695 0.9639500954549227 0.2044433947859445
Ar 0.776627539558831 0.001328913839431343 0.1341423014495737
13
algorithm=ssw size=13 seed=1 index=2 energy=-40.2464013245676 entry_id=2 visits=2
Ar 0.08301271996893435 -0.6257010971144037 -0.4733809567993503
Ar -0.09150785618618541 -1.564183004247717 0.08759360583000791
Ar -0.9601845891512681 -0.8544794420697676 -0.127623987378769
Ar 0.5044267234228851 0.153987877699247 0.1881048213616903
Ar -1.20363787727601 -0.1578558332822895 0.7392674632279711
Ar -1.101160645545605 0.9442030816137046 0.5133427901134643
Ar -0.5583710175722488 0.1877409239592376 -0.08607025778045173
Ar 0.7338342526451511 0.8859292441037937 0.9867166577862539
Ar 0.8134590943621194 -0.9108074346237757 0.3299334662241462
Ar -0.03352430813517931 1.131085801105619 0.1946248646971434
Ar -0.263669831087863 0.4050686391717689 0.9973846060749725
Ar 0.6485816723973153 -0.2166768911804787 1.217092882747893
Ar -0.1997017091941073 -0.610965050128026 0.6243300946097627
13
algorithm=ssw size=13 seed=1 index=3 energy=-39.27846193829642 entry_id=3 visits=2
Ar 0.0511648100535817 0.3686943583386385 -0.7292471790220211
Ar 0.04199368709158281 0.7186305528461394 1.060715945329498
Ar 1.124876047716758 0.458082489987965 -0.426638015087706
Ar -0.4601404245347947 -0.4814681985338433 -0.2122030664934678
Ar 0.3854040513038394 0.02922084008661314 0.2757900934773272
Ar 0.4768405232462764 -0.3039667749106596 1.332314181922461
Ar 0.1831925717826515 -1.023852194438802 0.5155635431212904
Ar -0.9250620987166486 -1.175513353440362 0.5375528269340876
Ar 0.3606523669349556 1.117454433425641 0.05859914804773867
Ar -0.3172552314916189 -1.104912773286529 1.500423974053653
Ar -0.5214705641283404 -0.2155727481830439 0.8863298751891037
Ar -1.423560225557237 -0.1953022541626596 0.2519156354873146
Ar -0.6050788850531496 0.5758524372775008 0.1401990877554394
13
algorithm=ssw size=13 seed=1 index=4 energy=-40.17718774112669 entry_id=4 visits=2
Ar -1.474650795216528 -0.2530266776153051 -0.1568972164740886
Ar -0.9287368671668053 -0.2341556677019664 0.8081178144920425
Ar 1.057920899687574 0.5099001706076444 0.3747271693856308
Ar -0.3840677708370904 -0.4282876162986777 -0.1860609604170896
Ar 0.7044431415293073 -0.4927785839542455 0.02002135157947746
Ar 0.8746635000279293 -0.3623394580473329 1.113936235091063
Ar -0.03489811697271807 -0.9285354537622923 0.736289387700479
Ar -1.025634017155709 -1.201442146099449 0.2774974697443081
Ar 0.156715108035232 1.224369481243525 0.3353179709242878
Ar -0.1408496661123633 -0.2704105478788646 1.621486411614719
Ar 0.05643363452274535 0.1774981932268576 0.6374276108030574
Ar -0.7557474042102761 0.5955147095467969 0.03864652258894172
Ar 0.2659649825166663 0.4310404117398638 -0.4291937163184268
13
algorithm=ssw size=13 seed=1 index=5 energy=-39.26503047761764 entry_id=5 visits=2
Ar 0.2750064848132587 -1.291068110331871 0.07260301569221443
Ar 0.5363319103493649 -1.011422603365074 1.134451400050686
Ar -0.4430783524549388 -0.7213853628092534 0.6929943645713014
Ar 0.2823293029488619 0.515693578015515 -0.4226800733847156
Ar 0.1415853971718474 0.02504062991180653 1.330344224009207
Ar -1.28337557772524 -0.2680946170048163 0.09583646404280879
Ar -0.2940989988071601 -0.4334904421255337 -0.3767346185917737
Ar -0.2903019979426865 1.348519173593327 0.03158374312340219
Ar -0.3598691689101788 -0.8582860491621275 1.790043793312139
Ar -0.8275017316492793 0.5367908428322872 -0.562364333836694
Ar -0.4282283614360194 0.3370836034738703 0.4412594545564394
Ar 0.532570048782041 0.8322629489275554 0.6279965001988956
Ar 0.5301876735078126 -0.2442967769499384 0.335982116971536
13
algorithm=ssw size=13 seed=1 index=6 energy=-39.04365618174088 entry_id=6 visits=2
Ar -1.184921286356281 -0.7659662970839107 -0.0471855884213923
Ar -0.5661902965064786 -0.7675166552230661 0.8699585994098545
Ar 0.4382143392319786 0.6489691158762086 0.3384382602398675
Ar -0.4050347031398955 -0.0007160977450428496 0.05859525831569518
Ar 0.5366721104773391 -0.1484467760928552 -0.4629117755589605
Ar 1.056978569736483 -1.034205143220215 -0.04793486918742718
Ar 0.4556223927915347 -0.420373711574995 0.6434954967055693
Ar -0.07582953883627658 -1.037080512658097 -0.111049212444738
Ar -1.097423684090142 0.9142078384619726 1.43939141725146
Ar 1.37904571701231 0.02395737877579997 0.2359091854351024
Ar -0.2467514527862627 0.2624037074182478 1.14201684818644
Ar -1.274720549600908 0.08700506568803534 0.7115483801670633
Ar -0.6441049892855607 1.005108902386019 0.4210440506146314
13
algorithm=ssw size=13 seed=1 index=7 energy=-41.01720049427798 entry_id=7 visits=3
Ar -0.5416880426289412 -0.4549416258077851 -0.7133263055074378
Ar 0.0334199957505926 -1.040454271597555 0.9749516410518239
Ar 0.8623464394876142 -0.3760364110586446 0.5202022667336258
Ar -0.4245364678971528 0.612380957262796 -0.3586732858948065
Ar -0.1807012196376052 -0.2382629494711087 0.2821280370426554
Ar -0.8365549764425025 -1.094196806484913 0.2085504861008857
Ar -1.235845894315583 -0.04282737615605135 0.08015039566914335
Ar -0.6404275386229258 0.6430593331184028 0.7462212355689254
Ar 1.159143119788653 0.4601621852650298 1.19505572801382
Ar -0.8903096561024672 -0.3973791010252627 1.097497463244605
Ar 0.1336074599024039 0.03774634134381126 1.289332131570742
Ar 0.4226475173278023 0.6643320918456308 0.3857377534415807
Ar 0.5104558920379721 -0.006235552227720918 -0.5165114963210297
13
algorithm=ssw size=13 seed=1 index=8 energy=-43.8994049274505 entry_id=8 visits=4
Ar 0.1094127773054199 0.160081710737856 -0.6255248323037342
Ar 0.593850119513486 0.2059831074591723 1.149512942824719
Ar 0.3749695962419489 0.8508187361717879 0.2383561228254359
Ar -0.8443592555859853 -0.3956136595937456 -0.3508709068021043
Ar -0.1252648628768264 -0.09482087976697171 0.3993329485660426
Ar 0.9177443518819339 -0.1413288511388598 0.115876242604219
Ar 0.1641501004119154 -0.9116640780169645 -0.2482655405336203
Ar -0.6255097406927348 -1.04045126740082 0.5603042018017358
Ar -0.414678494256484 0.7220132723014284 1.046945225476516
Ar 0.463539304911492 -0.8832887547752134 0.8487794084295592
Ar -0.35993951403688 -0.3497111820384999 1.424190902599847
Ar -1.168278435611637 -0.04832487389223886 0.6827750002886456
Ar -0.7140793185585675 0.6936535349598333 -0.05009566506247124
13
algorithm=ssw size=13 seed=1 index=9 energy=-39.00542301030155 entry_id=9 visits=2
Ar -0.076297185132938 -0.9857200343265859 0.1660389956040535
Ar -0.6262764796312553 0.5792246179929124 -0.6151951776530236
Ar -0.01347199055859084 0.07676107712256411 -1.40384260950818
Ar -0.7109762844448271 -0.07891420290943039 0.2629193665052624
Ar 0.2989149702489963 -0.1302853495221676 0.7489964272105125
Ar 0.4528812461901709 -1.131193156868537 1.171146503221432
Ar -0.5749458475237351 -0.7241644690732811 1.14456722113852
Ar -0.5694716341949961 0.3865148267324085 1.250602156055628
Ar -0.6318700820575894 -0.5598246071758772 -0.7239307817910577
Ar 0.1680329358344257 -0.2327383405693873 1.828873074082729
Ar 0.462255976964121 0.7711148898377941 1.352754721212204
Ar -0.06740645905222369 0.8236145572554178 0.3387727561746978
Ar 0.2601874620060131 -0.02704299348879876 -0.3303866015378472
13
algorithm=ssw size=13 seed=1 index=10 energy=-34.40550550314822 entry_id=10 visits=1
Ar -0.7610854975095287 -0.9037984326534315 0.4847341360995729
Ar -1.794893183968782 -0.6805598919946746 2.078606395354814
Ar -0.9220263926610264 -0.4307785828079494 1.47420312071483
Ar 17.87863689363782 3.107996952096258 -8.048953049847571
Ar -1.789509713723168 -0.5388447469852499 0.6188451329207828
Ar -1.451288815234654 -1.374167004906589 1.257600874554767
Ar -2.509971176379317 -1.010155132192069 1.312008186467742
Ar -2.770702329654707 -0.04446861250906421 0.8423046850228672
Ar -0.9732005984364167 0.2133049187866167 0.5934409730260187
Ar -2.736086957962005 -0.1101652052516634 1.947680431960386
Ar -1.819228243172297 0.2178377449160579 1.397163273742546
Ar -1.989974737769859 0.5348004529734377 0.3276308146411547
Ar 0.01088738148820886 -0.2136556444650641 0.9060510760563709
13
algorithm=ssw size=13 seed=1 index=11 energy=-33.85697653176346 entry_id=11 visits=1
Ar -1.422792543508642 -0.5171274069629677 1.539833828781416
Ar -0.7051341588650316 -1.124052770511775 2.163107167848885
Ar -0.3135852116861201 -0.3620710109624399 1.448417466322381
Ar -0.9916055976941176 0.5028753425893798 1.40210811833404
Ar -0.8818769768870195 -0.05556477089667195 2.386817746732493
Ar -0.7804564201965324 -1.293567387575774 1.059878033042158
Ar -1.861215386538391 0.3663006884898933 2.079477495705982
Ar -1.011751752386689 1.039511388179317 2.377868265442233
Ar 0.1516512121040471 -0.449932080189083 2.453388347583136
Ar 6.719582538550775 -2.902919009526161 -17.78577894651099
Ar -0.02637574301663772 1.530279347927937 2.54859468842042
Ar -0.4556368894667503 1.472982836252766 1.5109780103531
Ar -0.0492464417611574 0.5606316481921383 2.006625828659299
13
algorithm=ssw size=13 seed=1 index=12 energy=-40.1880713364534 entry_id=12 visits=2
Ar 0.5375373253802309 -0.6946742814377674 -0.243761719440526
Ar -1.026375664889082 0.1269945140622734 -0.6864274709831346
Ar -0.1998305547115934 -0.5325497325545839 -1.075160574365912
Ar -0.7863757098487908 0.384495660921481 0.3747467055223551
Ar 0.2011191343381863 -0.08264853107888119 0.6023860826543873
Ar 0.1111742893258691 -1.161807771431613 0.7139115595780484
Ar -0.7310335870047607 -0.5032649886117568 1.058114996096366
Ar -0.3473218407487202 0.4838091275622127 1.392640859747329
Ar -0.5429873366792444 -0.6219406002085567 -0.02404813048992278
Ar 0.2330160641006291 -0.4614978308172398 1.623339014455526
Ar 0.7597690032398214 0.5121843157456986 1.334090166799545
Ar 0.1339155704780123 1.003529375464446 0.5128476944787845
Ar 0.02894993566689777 0.314717557391358 -0.3913631333378514
13
algorithm=ssw size=13 seed=1 index=13 energy=-43.89940494166595 entry_id=13 visits=4
Ar 0.3964098821605585 -0.9494333248099353 -0.01037704082637556
Ar -1.036979742372701 -0.3001534512431067 0.944301195735309
Ar -0.7395747590711758 -0.9038536673206056 0.02722988661126253
Ar 0.7864444286928878 0.11051746088172 -0.1456397245352268
Ar -0.1657322014967544 -0.2170169574224194 -0.6748205012858849
Ar -1.051600197213556 0.1842819096960745 -0.08479455666041824
Ar -0.1084639713755201 0.8111849584584199 -0.191641594987196
Ar 0.4890417152068006 0.7142155385173908 0.771440202170707
Ar -0.1420550370045935 -1.000831562550559 0.990291873543713
Ar -0.6469264434820099 0.7598039992787883 0.8090389312059925
Ar -0.1252652649620619 -0.09481920972465288 0.3993323006501539
Ar -0.0848138942809312 0.02735526736008472 1.473487128844815
Ar 0.8010721138461325 -0.37390414611466 0.8834679502475083
13
algorithm=ssw size=13 seed=1 index=14 energy=-33.85697650410357 entry_id=14 visits=1
Ar 7.355876635002209 7.511804571139584 18.06811817723045
Ar -1.318690409403992 0.5646449667768851 -1.029644203490182
Ar -1.038827938517987 -0.1043235198621269 -1.879861720023064
Ar 0.243364820428522 -1.553280807317749 -0.01166018340694758
Ar 0.05030695919351959 -0.382438305284663 -1.897039504884695
Ar -0.4443813349458997 -0.1189721655833932 -0.9380987060071471
Ar 0.2641724930330482 -0.9804869203234722 -0.9693992999892245
Ar -0.6720333708247789 -1.019624296567825 -0.3490633142163944
Ar -2.114445524948801 0.04919806852086627 -1.633965990189867
Ar -1.48623133254698 -0.532835008829814 -0.9260940397292153
Ar -0.7085984519358371 -1.080013308976869 -1.485941593631353
Ar -1.425602856738093 -1.652561993362035 -0.8644790753941722
Ar -0.3333530591475344 -1.933764465322543 -0.8915544955542632
13
algorithm=ssw size=13 seed=1 index=15 energy=-33.85697659095693 entry_id=15 visits=1
Ar -1.451237172616683 -1.638043115144374 -0.9735361244041481
Ar -0.2069541636789908 -1.617930084355913 1.410814090810744
Ar -1.917691134789971 -1.90682475576005 0.0133984079132572
Ar -1.127943315541502 -0.5705836211283082 -1.042167043676833
Ar -1.185403693336326 -1.074151568406726 -0.05056879559448484
Ar -1.130301508403882 -1.786344774643779 0.8067572391101917
Ar -0.3712010834408306 -1.343815305081188 -0.7725114002316857
Ar 0.244170218342368 -2.170002937296144 -0.3253379101540029
Ar 7.583371247584669 18.18026740622864 7.145316372104018
Ar -0.1986817919609461 -1.384565390024836 0.3235810850523374
Ar -0.8568147919631782 -2.152655837543793 -0.200234222040526
Ar -0.2285252587517488 -2.447647172394285 0.6607057111500246
Ar -0.7812309227954995 -1.320356029443771 -1.804901359324147
13
algorithm=ssw size=13 seed=1 index=16 energy=-40.00593298417311 entry_id=16 visits=2
Ar -0.3255045589370742 -0.9106555995904093 0.9420816606269127
Ar -1.420270036639732 -0.7906097125003065 0.8304710121484744
Ar -0.8175016019230799 -1.427358043991037 0.0957116806210442
Ar 0.03403441037347106 0.1214656279199234 -0.5347903240822125
Ar 0.1575295966186688 -0.01837054990908021 0.5650774144047018
Ar -0.7900649122054668 0.1174503122468306 1.090947658695717
Ar -0.559811074364997 0.7488125385544071 0.1891063590907721
Ar 0.5372391704987497 0.903865692999773 0.0773213539442878
Ar -0.7795173641820553 -0.3263055428544404 0.06323287467262241
Ar 0.05366695601867405 0.9168878794388947 1.107772041264248
Ar 1.082789311826807 0.4423668453750567 0.9248530641848662
Ar 1.027266633254967 -0.1116420364384367 -0.07901905878821344
Ar 0.1717000983086943 -0.8985605962434374 -0.08144968606839104
13
algorithm=ssw size=13 seed=1 index=17 energy=-43.89940495579233 entry_id=17 visits=4
Ar 0.1033457690829618 -0.6617916373458632 -0.4932233159226399
Ar -0.1987349006639346 0.4338091427035959 -0.5416952664276726
Ar 0.1765923304544736 0.9440477416707819 0.4031487660789408
Ar -0.3538768282342041 0.4721502742691082 1.291888129632728
Ar -0.1252638210700186 -0.09481687524955155 0.3993293698282749
Ar -0.961150713667125 -0.3534331020047887 -0.2368985748406955
Ar -1.057032641563473 -0.3297392141601143 0.8963178572679079
Ar -0.05179614434266773 -0.6234474210738566 1.340356353182876
Ar -0.9158837173421749 0.6390308779316883 0.3170939003349177
Ar -0.4271212119794898 -1.133684856883365 0.3955171056106076
Ar 0.6653524150268515 -0.8286698304630262 0.4815716445104452
Ar 0.7106201767823384 0.1637925036754429 1.035564920596924
Ar 0.8065059161643267 0.1400992119382761 -0.09765483913830984
13
algorithm=ssw size=13 seed=1 index=18 energy=-34.59006309059488 entry_id=18 visits=1
Ar 0.09971028504100785 1.174244558803853 -1.881343220431463
Ar -0.7150555078569434 1.14566618097356 -1.073232405930898
Ar -1.00114721767873 0.01656296783934563 -0.904548108006181
Ar -0.05537444031359923 -0.519551616250171 -0.5255757922510766
Ar -0.01260770306619692 0.3348176049786213 -1.196564012501431
Ar -1.853847057658158 -3.4472109072552 19.50511719030349
Ar -0.3498837515731417 -0.6083504234303131 -1.61928411771099
Ar 0.729951753807793 -0.4624633151839818 -1.331795076549348
Ar -0.9593325491466337 -1.098740211202864 -0.8252425642792235
Ar 0.3092242186806933 0.1033934775161631 -2.212296572192317
Ar 1.005267320367965 0.6205068289641151 -1.493848119277038
Ar 0.782285749944771 0.2460048496452097 -0.4555456808251299
Ar 0.3923655280988003 1.262466819609633 -0.794525469635465
13
algorithm=ssw size=13 seed=1 index=19 energy=-34.40550555420728 entry_id=19 visits=1
Ar 1.085046958344654 1.534505836072223 1.075676953789273
Ar 0.2700417831632892 2.311293419497295 1.142155227844011
Ar -0.2152688277945721 1.818634170497766 2.033758410129361
Ar -0.1525453313676519 0.6825555419993061 2.051925815716469
Ar 0.7577989783395749 1.29823955880211 2.083804858850615
Ar 0.7257271106103586 0.4601958510962439 1.356224939089872
Ar -0.3177265710752813 0.1895256894252429 1.062306307490283
Ar -9.271003724314228 -18.51445612342813 -13.71703032683462
Ar 0.01262403401561078 1.251763149191981 1.115206898114213
Ar 1.706538312059077 0.8235695895159516 1.693573896465695
Ar 1.700483606269209 1.891686278670691 1.956381820456284
Ar 0.7364814576993896 2.402223990734667 2.13302568692368
Ar 1.333358842697764 2.617609862930046 1.204305562678105
13
algorithm=ssw size=13 seed=1 index=20 energy=-37.60595639937131 entry_id=20 visits=1
Ar -0.1894932013659276 -1.197241290183234 0.4276786321602715
Ar 0.3961701371876589 0.2781812425875765 -0.5745927996137509
Ar -0.2455391580710244 -0.04183864863525659 0.3375375578518158
Ar -0.6403998037691778 -1.629896145365964 -0.5152971982754165
Ar -1.082087464128588 -0.695482060343785 -0.05317652404995386
Ar -0.7289036445840329 0.1942796701864191 -0.6576121445174016
Ar -0.9727284692425205 -0.7773167864630487 -1.170031589148749
Ar -0.01422909618653259 -1.317624050785261 -1.405334963607026
Ar 0.6759188131249801 7.099099874957983 12.29135796502733
Ar -0.06893445771210155 -0.1902190369779417 -1.493287696203744
Ar -0.09391299768679851 -0.6838830778132924 -0.5189828675619401
Ar 0.8488261171980961 -0.6794226707123112 -1.048193554446226
Ar 0.4868698538845207 -1.59129020543606 -0.4287487669062465
13
algorithm=ssw size=13 seed=1 index=21 energy=-43.89940495836598 entry_id=21 visits=4
Ar -1.194190986540071 -0.03652574540715909 0.2432094442047863
Ar 0.388439133634662 0.8392938537921597 0.5834815014545325
Ar -0.4766837461982909 -0.2629184472727599 -0.6099359535553778
Ar 0.4089869575956571 -0.8343222334356322 -0.1821186876337485
Ar 0.5014368114874902 0.2783625142875883 -0.3996380404354654
Ar 0.9436621104686538 -0.1531133465954736 0.555454160346628
Ar 0.2388558691885489 -0.9610659005225836 0.9354364015335244
Ar -0.1252657764643661 -0.09481918459942258 0.3993303735701009
Ar -0.4893796983446058 0.7714328978982997 -0.1367652535180698
Ar -0.7519674199536462 -0.4680089842883156 1.19829805888194
Ar 0.2261494196758579 0.07328661561424944 1.408600849780398
Ar -0.6389658934252712 -1.028935764673076 0.2151806148466242
Ar -0.6595201524768725 0.6446805402082662 0.9807825812388992
13
algorithm=ssw size=13 seed=1 index=22 energy=-34.40550561976026 entry_id=22 visits=2
Ar -1.049993699255697 -0.2189139633990512 2.122258981518576
Ar -1.04212224248878 -0.5457524195627693 0.3663569258618437
Ar -2.842872013279093 -0.7859763413414411 1.687859202434677
Ar -2.15606242578248 -1.596464283794351 1.373663167080907
Ar -2.081279092073966 -0.5721874657275827 0.8968899871568162
Ar -1.612586834395092 -1.483346621811084 0.4240274380999938
Ar 16.47247048704111 5.642701696936164 -9.926424358587356
Ar -1.202401641925235 -1.007033628611777 1.36347161019696
Ar -2.114678080298745 0.03413575779908174 1.847344123496979
Ar -0.3386748339862202 -0.3376868209418032 1.241987892734589
Ar -0.4745519756895062 0.414819732842923 0.4265266416424618
Ar -1.877944695308792 -0.9656308111277777 2.237309404672406
Ar -1.30774632391226 0.188681983746701 1.130045034407587
13
algorithm=ssw size=13 seed=1 index=23 energy=-33.85697651204972 entry_id=23 visits=1
Ar 0.3262603725210254 1.811387694799723 0.122120357971241
Ar 1.755392019920927 -16.56598676021518 11.73390188714948
Ar -0.7199652125637312 1.457233826763983 -0.03671812988148798
Ar -1.676620268530152 1.064539243805664 -0.4499079954416849
Ar -1.066789026496777 1.790596643596075 -1.041242053755774
Ar -1.561767932822294 0.938791445128871 -1.56125647085372
Ar 0.3574794914758628 0.5557716531796418 -1.197139758255181
Ar 0.004373221682479964 1.565320245345465 -0.9068859473858596
Ar -0.4224162580294513 2.460537030141502 -0.4089318727506673
Ar 0.1074114612151658 0.7384436331222619 -0.1302689401665612
Ar 1.00454397728739 1.234757822681372 -0.5701732728027766
Ar -0.7079513321814878 0.7229419515088917 -0.8838044616335365
Ar 0.9716061151690694 0.9930123851473043 0.5216227085202597
13
algorithm=ssw size=13 seed=1 index=24 energy=-41.01720052734823 entry_id=24 visits=3
Ar 0.5167474903384091 -0.1904462083987314 1.310057168167453
Ar -1.049021279045683 0.05408122022101066 0.3647818145548465
Ar 0.4476498481402763 -0.5417139523188925 -0.5006833533381213
Ar 0.540310514911436 0.581990082826278 -0.4006828377122252
Ar -0.5276398790435642 -0.856909134137941 -0.03370266007052174
Ar -0.4690497284206575 0.1136505438216458 -0.6019799524826369
Ar -0.4096247721046904 0.9577196191829945 0.1502489875909463
Ar 0.0400410371884137 -0.003621365319973184 0.3575816400324677
Ar 0.4354196396586717 -1.007361811333455 0.5304046833353064
Ar -0.4147525386056801 0.485247521638003 1.204798887980908
Ar -1.363659776842884 -0.05605366740426311 1.426826160357296
Ar 1.11291798453649 -0.1277066974241185 0.3162064183777157
Ar -0.4877819120662267 -0.6415293363454659 1.067459093922651
13
algorithm=ssw size=13 seed=1 index=25 energy=-43.89940494814494 entry_id=25 visits=4
Ar 0.733612844867242 0.3650312336049058 0.8697021951672141
Ar -0.501984406411791 -0.9990640825056297 0.8584679577819422
Ar -0.1695450914529398 -0.04581704807603479 -0.680488570681272
Ar -0.8611439815404676 0.5752326849686885 -0.02480380432662162
Ar 0.05243359981669139 -1.018789584915365 -0.1345992888396837
Ar -0.9841425254841346 -0.5546682757231166 -0.07103768099681454
Ar -1.066596820251936 -0.01390300168032574 0.9263174700225344
Ar -0.1252651786427519 -0.094821833551503 0.3993293049473234
Ar 0.8160733331502594 -0.1757307469086478 -0.1276497730199739
Ar -0.08098622919980666 -0.1438169005524022 1.479152533556671
Ar -0.3029628816941791 0.8291446357985118 0.9332631386987424
Ar 0.251452446489089 0.8094214744561824 -0.05980188394243072
Ar 0.6106115189988546 -0.7648717399079672 0.8234644523481572
13
algorithm=ssw size=13 seed=1 index=26 energy=-33.8569765901069 entry_id=26 visits=1
Ar -1.482264478197615 1.774934723190025 1.119939943961909
Ar 0.9893150324786484 0.9812925916422964 0.4161842408617439
Ar -1.204120699959479 0.8103249826295474 0.5854904941244309
Ar -0.5126737144724263 0.1518696239700685 1.176734288939346
Ar 0.315596293146315 1.745387336100645 0.8723536487651248
Ar -0.1113380959158272 0.8249474144625044 0.3893352981257197
Ar 0.4366041668790258 0.7342560328334455 1.356936087247487
Ar -0.5442062415304103 1.245107668581545 1.355553476761888
Ar -0.6728043453254796 1.77022308326129 0.3549291027928645
Ar 5.685871020974202 -16.28594431143592 -4.600697566513701
Ar -2.263692652291014 1.034353224190328 0.8337110689085264
Ar -1.731617926301952 1.627729896613516 0.04066024563282263
Ar -0.53311173083908 2.352864548967398 1.290185721107288
13
algorithm=ssw size=13 seed=1 index=27 energy=-34.99094815464638 entry_id=27 visits=1
Ar 0.4146309818608089 0.04058097250821068 0.3051146040858986
Ar 1.102395649148986 -1.670922212054955 0.6317621292379332
Ar -0.5823617243475265 -2.449776298628719 0.2423928821905328
Ar -0.6999964714529251 -1.386817958109166 0.5339667460139218
Ar -0.4239680721569248 -1.247333624946045 1.60083871286181
Ar -0.9634506995446851 -2.178379295592297 1.264561137398589
Ar 0.1109107027488884 -2.028881293710282 1.016758997871269
Ar 0.2182053992503138 -1.732103944658969 -0.03753401427921099
Ar -1.008605460308547 15.61884090390729 -0.267834193088908
Ar 0.2754861378277362 -0.950270588516569 0.7833030304919841
Ar -0.2096698720113865 -0.7271515913678153 -0.210300073730672
Ar -0.7659755653473074 -1.653255164701062 -0.5387717994849662
Ar 0.903955622977335 -0.867183089122596 -0.1329421088521866
13
algorithm=ssw size=13 seed=1 index=28 energy=-34.28515721694548 entry_id=28 visits=1
Ar -1.755264433948306 -0.06173647659474479 1.701530424613156
Ar -2.05815747453284 0.3120674295142913 0.701455970096271
Ar -1.060733102439691 -0.1765012528719647 0.8053515357458667
Ar -0.1603058853669951 0.7108107923665029 2.460439584056691
Ar -1.810718193454247 1.031526094171041 1.519503887197985
Ar -0.7864478570445249 -0.5868725863302704 1.794906605799817
Ar -0.1071663062056392 -0.3807753590705522 2.64469595961448
Ar -1.167402200007098 1.210134735176176 2.411724295645853
Ar -1.134800843405518 0.9302111935830323 0.6289733737303926
Ar 0.1321784578296139 0.008519710235269812 1.619447743458711
Ar -0.8272734448487573 0.5320642481692738 1.606827215423047
Ar 10.21543680984113 -4.878502809219547 -15.29796560310365
Ar -1.107788897768578 0.1164010958765849 2.594425058436707
13
algorithm=ssw size=13 seed=1 index=29 energy=-40.18807130440612 entry_id=29 visits=2
Ar -1.07137481773392 0.1245417509472899 -0.1865055068585719
Ar -0.03668816166089577 -0.9730971204395951 0.8335532003688724
Ar 0.4855937182169154 0.7728888515751128 0.6936726545175351
Ar -0.3641919075724891 0.08068650336708662 0.6443222792904225
Ar 0.01265947524595087 0.4648851065621722 -0.296672371756076
Ar 0.6712131038532815 -0.2961539294587937 -0.769059913675902
Ar 0.6496100574656013 -0.2613369788197656 0.3407162144337043
Ar -0.241431744344345 -0.6236309845699195 -0.2124472782264742
Ar -0.7254712240344631 -0.4366608329533416 1.532421079658085
Ar 1.116431760348847 0.5777984466140847 -0.2147293308141816
Ar 0.3755062220707339 -0.1086186477244389 1.42029187041877
Ar -1.078081112182019 -0.7665558936518706 0.5075021193898333
Ar -1.42221874102512 0.2126005435593991 0.8982510339674075
13
algorithm=ssw size=13 seed=1 index=30 energy=-40.24277382591972 entry_id=30 visits=2
Ar -0.7740602058271109 -0.8115754382238233 1.212858976596829
Ar 0.4477326247888583 -0.9977925022029137 -0.2314862784917534
Ar -0.007328719586187789 0.00532501634162609 1.231256767104308
Ar -0.3562411083377375 -0.4513831652948654 0.272112165328243
Ar -0.1551891942650799 0.6402567307256715 0.3262860246780942
Ar 0.8160159757621003 0.8389265934159301 -0.1637330837754972
Ar 0.6944388630754246 -0.1150887026186644 0.3818024732274085
Ar 0.1221991977861174 0.04795486119303441 -0.573305746296099
Ar -0.9872313938248612 0.2345389450406088 -0.289339391074481
Ar 0.725248438828515 0.8212615748486564 0.9700443539448502
Ar 0.313131971352859 -1.023811307580812 0.9139585766782313
Ar -1.032875637866323 0.2241968069985229 0.8492763882263829
Ar -1.434284183237144 -0.64546259763562 0.2915848245678156
13
algorithm=ssw size=13 seed=1 index=31 energy=-43.89940496205062 entry_id=31 visits=5
Ar 0.0771969378458319 -1.022048278832432 0.9185920328185184
Ar 0.7821782473493479 -0.6154312231276371 0.1238574472112221
Ar -0.4099478323026026 -0.1374630784310439 1.442170158250478
Ar -0.1252645384261736 -0.09481872505353953 0.3993319732595557
Ar -0.006041458432826709 0.8158549795380633 0.9710239674131642
Ar -0.3277266944301005 0.8324087027085453 -0.1199276517132199
Ar 0.1594174848448767 -0.05217559669239356 -0.6435062100188462
Ar -0.9304466539079462 -0.1106781152146676 -0.3230299573465332
Ar -1.032706457115711 0.4257926005024582 0.6748056614238641
Ar 0.7307313704928657 0.520453821103406 0.1562651335224121
Ar 0.6799157147060811 -0.07896181358017311 1.121692643613307
Ar -0.981262436016094 -0.7100923082666757 0.6424015458169683
Ar -0.2444870559581084 -1.0054941496459 -0.1723606935366272
13
algorithm=ssw size=13 seed=1 index=32 energy=-35.81630505755712 entry_id=32 visits=1
Ar -1.869149984387437 0.02721313378711606 0.1943553642144395
Ar -1.905365276888558 -1.047079225441383 -0.2271014829376268
Ar -1.240924767228559 0.08293362775921133 1.1486671437291
Ar -1.082520973559995 -0.6991354541785477 0.3967678510763988
Ar 8.501077261968284 6.374504725152139 2.670713022597115
Ar 0.6980277022777811 -0.763496752514553 0.4076990610030616
Ar -0.2334889560152341 -1.376122250939072 0.4645049086881057
Ar -0.1769154854875614 -0.4874762914528379 -0.2205946267562663
Ar -0.1971699281825388 -0.2994777932011226 0.8868635506137799
Ar -0.8411698936146348 -1.335328682954688 -0.4875193840568674
Ar -1.303514019769463 -1.772762418094371 0.4206677094136351
Ar -0.7842605633379929 0.3528627443942829 0.1747583091352914
Ar -1.193068487124441 -0.2892885473084499 -0.6384653760058285
13
algorithm=ssw size=13 seed=1 index=33 energy=-34.59006308678097 entry_id=33 visits=1
Ar -0.9823996621261537 0.8073469121176634 1.760783561427604
Ar -1.018651527834171 0.1462825045185705 2.67647581728546
Ar -0.4783822393122457 0.243425718443812 0.9224267360427761
Ar -1.076215205023912 -0.2836709397061376 1.677476532514462
Ar -0.1851811879579564 -0.7777904625539217 1.298107164039088
Ar -0.5487817716331326 -1.610611653111684 0.6526338513927112
Ar -1.671562151119697 -0.7671674645566725 2.437678182798959
Ar 10.24661307854843 2.27797012708979 -13.42066176069186
Ar -1.112233616573268 -0.6488863011048468 0.6540881529207145
Ar -1.145844990031609 -1.354150910944221 1.563494352572604
Ar -0.1134423471130813 0.1265995529207965 1.98339675341897
Ar -1.602505270563546 0.3336401010544748 0.9489201272230018
Ar -1.939856480610397 0.2743596308402174 2.036496579769473
13
algorithm=ssw size=13 seed=1 index=34 energy=-34.40550562833069 entry_id=34 visits=1
Ar 0.4218471945358257 -1.017089883244746 -2.197858915335739
Ar -0.5532638749403603 -2.639675562423573 -0.3083155934690708