75
algorithm=ssw size=75 seed=0 index=0 energy=-250.5923423463099 entry_id=0 visits=2
Ar 2.244658488397325 -2.233655215600468 -0.3713240088229979
Ar -3.129594258380257 2.275095079810439 2.763758016265572
Ar -0.6436814626870473 1.416019112858521 1.201607533064394
Ar 3.095652539781217 2.226071787187276 -3.163611315058072
Ar 2.56973737599133 -2.136702301224788 0.6568251641623218
Ar -2.462871769732168 2.450013818252696 0.3895961680149454
Ar -2.290626515152043 0.1278590758489546 -3.968184079834983
Ar -1.669722708358681 1.173500032080457 1.636651522979196
Ar 1.032018052047169 -0.9323629314907225 1.947358617489145
Ar 3.581541527040296 2.245134582663978 2.119957321773472
Ar 1.389863588946141 -1.58677804126026 -0.5948848914980236
Ar 1.744342199941877 -0.4719743234865426 -0.4845655333065392
Ar -1.478567027566845 2.85238210486244 2.552257614694302
Ar -1.945368807096423 1.138151168870586 -2.159350708501481
Ar 2.804762008815871 -0.4803346038727001 -0.1028243231654717
Ar 1.463438135687334 -2.03119081348242 0.513414968974232
Ar -3.126102784312168 2.436995316190542 1.659113598931571
Ar -2.427950796608332 1.671358482818191 -3.839989114459874
Ar 0.4858706288309921 -1.88662067366298 0.07384239229957594
Ar 1.985987219651995 -2.018013104894812 -1.444701178554864
Ar -1.999739749031081 -0.1803832489150572 -2.916596120795157
Ar 1.094020335483952 -0.9663005182945904 0.2358217256369449
Ar -1.488053585509112 3.005369815585814 0.5178213605985955
Ar -2.201814663875724 2.004505255072851 2.225203864154184
Ar -0.592894263873366 2.527876699312607 0.9844517192655491
Ar 1.375827234635882 -0.3891282645687541 2.818964237989758
Ar 1.361411154607386 -1.958757385208728 1.853502666512012
Ar 0.7071631414367654 0.09548990381134138 2.070391326116218
Ar -1.214563086391326 2.145897242882064 1.788013214523722
Ar 2.457230661993061 -1.884618467489046 1.684791631381634
Ar 2.492560941730734 3.16385297875722 -3.244154203612571
Ar 3.158053518528622 3.090486223267283 2.724664437245489
Ar -2.519680326182484 3.095513062264159 2.309498800966141
Ar 1.634550793472496 -0.9516699974879079 -1.484967119229567
Ar 2.681914142939808 2.703665138242303 -2.243174924501186
Ar 0.0233742814529424 -0.7114559311978308 1.624525137313214
Ar -2.519272709594052 1.67230737582929 1.176284332725888
Ar -3.069827725221043 0.8064081598538938 -3.543149530251639
Ar 0.9251674376608416 -0.3210495908457764 1.068371875235576
Ar -2.77896869234984 1.569354678879701 -2.781442964924868
Ar 0.297161166494314 -0.754814750315682 2.717769611050996
Ar 2.117452796925391 -1.276221785577651 0.1733045875521359
Ar 3.071812680852193 -2.060089120829542 -1.121836417571792
Ar -2.082833956248263 2.681296283268075 1.388302774567163
Ar 1.542336380739541 0.151309481301596 -1.384578057291479
Ar -1.193784672575324 3.274785387402251 1.562205621546354
Ar 1.734735855728341 -1.192679885851547 1.179517693808288
Ar 1.657917327360939 2.671540798092391 -2.686785547610354
Ar -1.741330154515919 1.915190703097627 -2.968947972054448
Ar 0.6629006834721123 -1.455680999195332 1.086623540349895
Ar -3.056396954273149 -0.2754035032134968 -3.270341989482476
Ar 2.804160867451459 -1.042523419298203 0.9606668452066334
Ar 1.84773899804862 -2.735847987117553 1.256511080307402
Ar -2.788334617391304 -0.5759754077219145 -2.227364379347196
Ar -0.3794181000317357 2.766209058592107 2.101489625273908
Ar 1.126727425549771 -1.510440232554133 2.85724828348307
Ar 2.563407918854526 -0.256526201413835 -1.217927860756734
Ar 2.663417389559942 -1.218803143826133 -1.875563004760691
Ar 3.239869157981991 3.184412736672524 1.609124145239855
Ar 4.166399470025138 3.195291569097174 2.242795233366365
Ar 2.441058195827704 -1.242070189351243 -0.8246889517387813
Ar 2.260783317189716 1.732420113991361 -2.605629010087807
Ar -1.532541615102976 1.925752373155027 0.7659839424047532
Ar 1.951996497668989 -0.2893219521531114 0.6091201341460095
Ar 0.2995210494339947 -1.725698092947779 2.09612426880097
Ar 0.7212600773707497 -2.536240702462161 1.160009504480298
Ar 2.123837049325123 -0.3009333993830551 -2.23737498679988
Ar -2.001811930697536 0.8723334930210004 -3.220540431589886
Ar 1.80366295339654 -0.2011925800988534 1.728965242510318
Ar -3.1015675336833 1.38777319675132 2.072794547193783
Ar -2.786541045306465 0.4974795385676429 -2.513562180525605
Ar 3.154773139262344 -1.557174618262914 -0.06656437395440314
Ar 2.030941210259399 -1.121509619485397 2.302777086526224
Ar 2.071672255914366 2.193988752013153 -3.607238514783011
Ar -3.582842904701569 -3.611757486583297 3.111121747258919
75
algorithm=ssw size=75 seed=0 index=1 energy=-360.799318852796 entry_id=1 visits=2
Ar 1.999056502693577 -0.9865847384466412 -0.243674729223054
Ar -0.6045132424226826 1.216409352349321 2.269833404510499
Ar -1.000227944584136 -0.06471500423532563 -0.4793543754612822
Ar -0.1561837357728466 2.447997815851705 -1.404559984707873
Ar 2.208081114839318 -0.9659947493786636 0.8544383252589556
Ar -1.549557549445525 1.826440661437448 0.3370413438849686
Ar -0.2167924819610782 -0.005184577762480814 -2.582521997267599
Ar -1.126993955891397 -0.3302465284851955 0.5753840008303236
Ar -0.2376535019519815 -0.257307428915992 1.169453511218212
Ar 2.196034529020386 1.245576773094285 1.482040084743489
Ar 0.5902424973750782 -1.227458035611096 -0.5153852822299321
Ar 0.7270230119600298 0.4227685601209121 0.06194478297757001
Ar 1.106942559679672 1.594508924741009 1.455024357789532
Ar -0.3451339666811965 0.650975593376955 -0.9497289301397512
Ar 1.765842280276195 0.5497543344127426 -0.2424221592525143
Ar 1.214252779534166 -1.274680786416591 0.4179728640533992
Ar -1.192281717685036 1.590682652160284 1.401470799428057
Ar 0.2838827817464177 1.0357443454897 -2.576430779417338
Ar 0.2153464288503335 -1.657135850789934 0.4516985625627399
Ar 1.517921543897086 -1.080868498679684 -1.239066364550024
Ar -0.5823863322073088 -0.2382146054832664 -1.523995493041492
Ar 0.4099435776606905 -0.5427991123271334 0.3236907596238423
Ar -0.5546564502869598 2.135358897816879 -0.3542260154078145
Ar -0.467438777618025 0.7609193228790911 1.283732498616285
Ar 0.1129729464960481 1.275831975967638 -0.2674448920715072
Ar 0.3984106183994557 0.8533350816692888 1.900973314201787
Ar 0.8404507058643957 -1.272735144799008 2.274302455531349
Ar 0.420433011317651 1.098077465331267 0.7917725445212599
Ar -0.3290480574599472 0.3959752866007494 0.2528811209689551
Ar 1.499393114974633 -0.5395174307663044 1.572592572446693
Ar 0.2354578404757431 1.41462531870986 -1.400801734432625
Ar 1.831139851312408 1.860072983837403 0.6332400251535893
Ar -0.04571966857538354 1.790866427557491 1.488619028947435
Ar 0.4965407201939343 -0.7267834695059253 -1.509969303614731
Ar 0.5300373400087353 2.216404278232644 -0.6032559562872959
Ar -0.4869248399648927 -0.9640761842328326 -0.07851300257356279
Ar -1.351888349821726 0.7429490732106431 0.6718568877406722
Ar -0.7438109183767853 0.9067314017793648 -3.015758890821288
Ar 0.1160126026818694 -0.2161198570126889 -0.6386892488469681
Ar -0.3976650479568981 1.837346865370269 -2.279280753317665
Ar -1.177554948245201 -0.5268381965233492 1.662436184766883
Ar 1.495340025419699 -0.2403943688427174 0.4729996420664911
Ar 2.219791047555386 -0.1798863086245634 -0.9330060099748368
Ar -0.5349491189738111 1.524125792920129 0.5416804430385522
Ar 1.132786541799458 1.438389567546358 -0.07143950742827324
Ar 0.4109560470823919 2.11539720557444 0.4800247655120961
Ar 0.5668153226939796 -0.958815282529894 1.267681536188698
Ar 0.9152033630279984 0.7303193094290374 -0.9146884245914116
Ar -0.850475173535682 1.594816955797336 -1.256070860266035
Ar -0.5984937804526187 -1.251634102689358 1.024911758323651
Ar -1.302709468524003 0.1111940919460647 -2.321255590720909
Ar 2.248480149693038 0.1557507824504361 1.173718430201904
Ar 1.415253102922811 -1.646813616922554 1.41339447847906
Ar -1.390262472446998 0.5848310212566165 -1.277576489275654
Ar 1.476737472942423 0.8222671095407801 0.7667439124561612
Ar -0.4398368180897698 0.1272016380632701 2.180218767689893
Ar 1.982073397084505 0.849995320495513 -1.258574964305473
Ar 1.36651926705757 -0.02187659653366697 -1.603157085077015
Ar 2.511602544303414 0.9674122898690654 0.4463167982041132
Ar 2.153453559597516 1.568827405303153 -0.4198172209640896
Ar 1.180138143310703 -0.3146822748961425 -0.5637347372117507
Ar 1.310033819060184 1.726064628403919 -1.150346814446608
Ar -1.053272962899588 1.082573669674053 -0.3065005582682772
Ar 0.7326293137999479 0.1343316296783222 1.120274696798003
Ar -0.2176338832026014 -0.9660575424977896 2.031850646254655
Ar 0.2028247793165178 -1.91565058087397 1.559385185687135
Ar 1.161650138742333 1.018330793877313 -1.958927658474041
Ar 0.3441341201448334 0.3267541596344505 -1.71369034210292
Ar 1.437207279602183 0.5358921607502185 1.841937222841765
Ar -1.40281969325646 0.5522021232541424 1.778738650311934
Ar -0.5801712209498376 0.8244165820570287 -1.959574436039994
Ar 2.542047459924871 -0.1160720623260858 0.1479444328561457
Ar 0.5958070923548795 -0.2131258535408122 2.122028876365933
Ar 0.7102803558643545 2.04299818788445 -2.11395306751972
Ar -3.032141766001572 -3.739986938153955 5.432425054793661
75
algorithm=ssw size=75 seed=0 index=2 energy=-361.5197511619851 entry_id=2 visits=2
Ar 2.178644597506009 0.3248598808626781 -1.512880223886047
Ar 1.330537769527792 0.51038461857512 2.633749021485661
Ar 0.1001676431904097 -1.101233464544906 0.3538328026888
Ar -1.662307887013021 1.004119965218078 0.2408507941975755
Ar 2.990848520169087 0.6780217146718277 -0.8235028565238274
Ar -0.7318676445055492 -0.05566472608725108 1.945279920002119
Ar -0.214226497381745 -0.4576678280075707 -2.236540277394331
Ar 0.9169938015685358 -1.223496505083823 1.076425140422936
Ar 1.670520472918226 -0.4562495633675134 1.065566381171568
Ar 2.082879817892279 2.329710275300188 0.4780321309216553
Ar 1.52864658411848 -0.8366635774195126 -1.004450470391654
Ar 0.9726678597951713 0.5098116035985516 -0.04055442076679198
Ar 1.361658594302227 1.822633473405526 1.208213044069547
Ar -0.3738044784293352 -0.2492354935274178 -0.1414522583664542
Ar 1.144086210571581 1.254417684279837 -0.8036574832040915
Ar 2.451753807481161 -0.2957289797708794 -0.6854251436334701
Ar 0.2661243352357358 0.217117636803929 2.458465858426175
Ar -1.632179274571063 0.6810629080019603 -1.162119389196798
Ar 2.236008591335023 -1.252177152605588 -0.2518547885077176
Ar 1.355397790903791 -0.2100706070228738 -2.03119045645126
Ar -0.1651082407685804 -1.166980925863142 -0.7151277593737195
Ar 1.576573695154274 -0.3518314963786324 -0.02833307282856341
Ar -0.9174652004163077 0.7071631745527464 1.018846753276766
Ar 1.028660865506073 0.1215265654332514 1.659865713037755
Ar -0.04345589233675239 0.6007677113879057 0.3713782548103022
Ar 1.770345323454829 0.8866891994073989 1.660284788748416
Ar 3.491480175894703 -0.257217215334803 0.8901120958785892
Ar 0.9004600916362406 0.8929042926033093 0.9235687826526895
Ar 0.6455897721371564 -0.2097111040449257 0.6856322164732823
Ar 2.884695862705945 0.602743681392622 0.2660455832784057
Ar -0.8395340174958309 0.6621716242964715 -0.4204842219469608
Ar 0.9893191514992521 2.372274620282431 0.2950077810848368
Ar 0.7260056802724147 1.166749339061066 1.95785353912635
Ar 0.5526473233648386 -0.7282914977476125 -1.481267204063078
Ar -0.6719150997724382 1.501672092915087 0.2707819891983369
Ar 1.134324479387231 -1.325625927056849 -0.008308283907588823
Ar 0.2378388815199732 -0.610856261397255 1.685445758389768
Ar -1.168653823386949 -0.02429303215994646 -1.854797897396265
Ar 0.6026517696758878 -0.4470858753275486 -0.4317858361814923
Ar -2.172891270290116 0.207783244384048 -0.3376643225808325
Ar 1.712845388176704 -1.216408789648799 1.847517720722176
Ar 1.979360793723877 0.6314742455471367 -0.4265824184490778
Ar 1.339013920390268 0.9387179813121042 -1.844450082258003
Ar 0.05243322335679994 0.471385394537243 1.428263195606418
Ar 0.4518503124373066 1.471098616362587 0.03658419132230321
Ar 0.05296166683601279 1.521711533486279 1.088158051835275
Ar 2.519381689927191 -0.3872395693996052 0.4179264874187886
Ar 0.2082777420424455 0.6474074563361569 -0.7367846592889871
Ar -1.329795899254545 -0.0380766164803351 0.318424463120513
Ar 1.994210263469994 -1.431174311847015 0.7764869939774517
Ar -0.8830519985001194 -1.040183284411039 -1.529035995799225
Ar 2.552284912129778 1.543403195560783 -0.189261758039314
Ar 3.420311726654554 -0.2582030473332008 -0.2082033098534287
Ar -1.001333962784604 -1.085118862713277 0.06257775931663971
Ar 1.534480748666924 1.418783806549083 0.2011560230104668
Ar 2.007187267851443 -0.1609465919137531 2.069103021554004
Ar 0.3834114015040492 1.421971601124343 -1.558377493449452
Ar 0.4084351247160706 0.3494930593426597 -1.793783891009348
Ar 1.708114656320257 2.174766726730044 -0.5648858966052154
Ar 0.6193962435895806 2.211587977744543 -0.7646999077664255
Ar 1.193666816906074 0.1937575403535111 -1.04246438589611
Ar -0.3024758700620964 1.609191466959985 -0.7414018993653283
Ar -0.4657650906160662 -0.3336733372780696 0.9104565924973662
Ar 1.83763748735637 0.4800650115996629 0.6253986722244861
Ar 2.663376607192266 -0.8092012561302147 1.419435282840609
Ar 3.112895657800778 -1.268280223652259 0.4760509896075535
Ar -0.5777315166140259 0.847887164190338 -1.490272244558739
Ar -0.3149405369982045 -0.1666633021044086 -1.184484933930017
Ar 2.395604118853632 1.365929244906992 0.9064896058934796
Ar 1.045187637949904 -0.590254022797479 2.470459182422641
Ar -1.290075192109321 -0.3235461028539022 -0.755261600468784
Ar 2.158510483232289 1.380335968874892 -1.208710230844746
Ar 2.640674058926364 0.2995215697551526 1.306512078985683
Ar -1.380543473663947 1.610959312534586 -0.6296957484255702
Ar -34.12193169445389 4.986206460658716 0.5407952294243926
75
algorithm=ssw size=75 seed=0 index=3 energy=-362.7229384743106 entry_id=3 visits=3
Ar -0.2846478449208715 -0.3019613133396176 -1.576773493769362
Ar 1.974032075129307 -0.8043859238430664 1.970292537498665
Ar -0.4304765753772719 0.9434421771703548 1.275438315548834
Ar 1.534612105427735 2.805298478007907 0.6115109169413903
Ar 0.279718201817791 -1.268705118260995 -1.448540782187144
Ar 1.353382391320467 1.323277377184563 2.322543511367613
Ar -1.294786311945557 1.681626480518992 -1.419558714628814
Ar -0.2418964043314546 -0.05790703144598104 1.680479158475387
Ar 0.3460641410543533 -0.7065340335129442 1.056521534270341
Ar 2.43882125494237 -0.6971186075542601 -0.9058892236816742
Ar -0.9810314361367128 0.06248704606320527 -0.3976552862331846
Ar 0.7030008556352939 0.3791271087453028 -0.1009645896203381
Ar 2.415874522169212 -0.2832724165205287 0.1624442526349779
Ar 0.1210439437952671 1.61911891939901 0.6232966357202541
Ar 0.971214831709711 0.4998140201770151 -1.145323675562679
Ar -0.4471250214902151 -0.8787078645363143 -0.6908901340306735
Ar 1.737135556177965 0.2386084641802216 2.296844393698115
Ar -0.01401242865615657 3.01620965482117 -0.4165586169505727
Ar -1.047410056816479 -0.8875115933182351 0.1950105670293346
Ar -0.9186067263854881 0.6106181114355046 -1.486821005026374
Ar -0.946619693465474 1.617753907624727 0.5097130429749642
Ar -0.09256319685849555 -0.2659973919382795 0.1441083604871078
Ar 1.561268980516338 1.859737260678809 1.243980042369581
Ar 1.192088548964586 -0.2367794058547409 1.462948893141442
Ar 1.07391073039579 1.211932333603803 0.5040292085451334
Ar 1.780792921369049 -0.8854705500784301 0.8548364633772559
Ar 0.2590926397976739 -2.358652647426103 0.247744740585231
Ar 1.506552595849616 0.1659692191070693 0.5223259563882322
Ar 0.4674939214802667 0.4041973723638185 0.950165149186486
Ar 0.755754311033307 -1.522024808708606 -0.492191261195259
Ar 0.7756087565373759 2.220235196243876 0.05723594413918542
Ar 2.488291607193341 0.3980137320570954 -0.7283148007198326
Ar 2.272029560211902 0.02451794457603696 1.282241649304786
Ar -0.9752731996229914 1.153907652254428 -0.5268453378134212
Ar 1.868008443280975 1.874397639182748 0.1753896337802079
Ar -0.8882689744157692 0.05733185755430873 0.7813574357241053
Ar 0.6466105383935221 0.4512099786823131 2.085237530870396
Ar -0.5920232123429495 2.50249623811295 -1.208734390513986
Ar -0.2801669901306585 0.7724313858279014 0.1840619699269406
Ar 0.5662959303178066 3.271845587917719 0.4531166805571098
Ar 0.05893035988985926 -1.055172609908449 2.052368234721262
Ar 0.5270712169626868 -0.4411589945886787 -0.7888210401848704
Ar 0.1729236157253487 0.632573937139725 -1.895720371623421
Ar 1.485300489424701 0.7889097853476511 1.395165728054602
Ar 1.620806777983692 0.9211906741657758 -0.3532296035573934
Ar 2.240076777075967 0.9326782325522138 0.5844440148073056
Ar 0.00492392444817339 -1.300476661320379 0.2327456424601326
Ar 0.5894984870894706 1.32860772821648 -0.5274442271383758
Ar 0.6217355091312931 2.420826284446328 1.14654244758388
Ar -0.6713502719761059 -0.9981979845469517 1.194198952084632
Ar -1.293267597439344 2.216600565544795 -0.3875804470827558
Ar 1.384817708264618 -0.9887711141441897 -1.215038808353309
Ar -0.2739434501404706 -1.942905590420636 -0.6209730127943972
Ar -0.3738111228178106 2.021730392300306 1.49775494913855
Ar 1.562388388831053 -0.1614065875633008 -0.5191671145282245
Ar 1.056117450255784 -1.31722619407955 1.626326122474721
Ar 0.8554590557970969 1.46160490650091 -1.620486927417476
Ar -0.2092683971612324 1.459500466905429 -1.286998846801062
Ar 1.836826793078665 -0.02689047226697267 -1.567809816234668
Ar 1.878903223118454 1.071666146672943 -1.401783707379861
Ar -0.07400407844619285 0.4736915349672375 -0.8264950727414179
Ar 1.465610325515861 1.931754312279206 -0.8154447714952181
Ar 0.5789211582887063 1.381567509417711 1.540229284724224
Ar 0.921390980782456 -0.6563863220867611 0.1828981953167483
Ar 0.1169320949129113 -1.786394870907911 1.208839405272385
Ar -0.7857768655694731 -1.948512969176799 0.5257184813139396
Ar 0.4831114013059452 2.306653513751167 -1.047719763933736
Ar -0.254776838814202 1.940740979245757 -0.3155172404740074
Ar 1.778120747612289 -1.204657626453888 -0.1881994076219067
Ar 0.9634134273630414 -0.5630577943155201 2.463135017133936
Ar -0.3305812142090245 2.600129018590237 0.5492257052795808
Ar 0.7839931078340886 -0.3156875223606928 -1.851218072821056
Ar 1.023259466443788 -1.642840695506182 0.5808917061371887
Ar 1.162330350226137 3.033463624847067 -0.5030297431413217
Ar -15.70188943509788 -6.323531950805589 -2.748338035275136
75
algorithm=ssw size=75 seed=0 index=4 energy=-362.7229386035877 entry_id=4 visits=3
Ar 0.9068756315716709 -0.4617881000061466 -1.81843986436909
Ar 1.420370990518543 -0.2582595549445422 2.38043389025251
Ar -1.056090434933907 -0.3055609965951568 0.5960484148528954
Ar -0.7770249504623415 2.465748385258525 0.7009905175600484
Ar 1.871773546285331 -0.8552162668963352 -1.38978210529038
Ar -0.5297994072038663 0.8471202446326979 2.274484384307527
Ar -1.129672349062456 0.3386246727805507 -2.256101928878055
Ar -0.4133422555903803 -1.02604189945394 1.115825479770023
Ar 0.6285767780295923 -0.9904193125149666 0.8534092350166471
Ar 2.698004270349864 0.7946867286050606 -0.01938072096978588
Ar -0.2182019178801557 -0.9078272385594554 -1.081346107059229
Ar 0.5583754151190332 0.313232432238278 -0.116905256264992
Ar 2.018416811261265 0.8340211991886322 0.9024599410002168
Ar -0.9102892680512861 0.6962318473080524 0.1945473620362531
Ar 1.032511285326 0.8185690031522066 -0.9517860546275262
Ar 0.8632152167007807 -1.201522139089644 -1.047268568842047
Ar 0.4522090555383445 0.2893519673270926 2.495932577242063
Ar -1.550952009907894 1.89434242675524 -0.9034194665598376
Ar 0.1561555826399484 -1.794650451309987 -0.5055125438560102
Ar -0.1465688818099203 -0.2038714029097416 -2.07637229690291
Ar -1.562666466036065 0.05234486396549645 -0.3645704975008416
Ar 0.3816355433455997 -0.7225153690372597 -0.1888011560989551
Ar -0.3595487207894684 1.631155856169003 1.352157896451593
Ar 0.7179505599865099 -0.2075327505241401 1.546743528153237
Ar 0.02443734278691717 1.02027402402844 0.5250892384320617
Ar 1.7546547323252 -0.1752204343584503 1.298994374038713
Ar 1.967581516155068 -2.078721234331275 0.2100822821203121
Ar 0.9964020669982078 0.5114875476633451 0.8042129710037828
Ar 0.005924307981024349 -0.0651006106232515 0.7272713188085704
Ar 2.002292173189516 -0.97115732035946 -0.3058542779163737
Ar -0.679117840740151 1.68696716518999 -0.07975148458067069
Ar 1.935622726153935 1.595970418226624 0.08060142989354764
Ar 1.312149638253392 0.7066508294072139 1.826777811342358
Ar -0.8948952710879295 -0.06397877108821635 -1.276148293806643
Ar 0.2190785573265191 2.087775016255233 0.5197614534140518
Ar -0.5834470759927143 -1.132950960009787 0.02078821000560269
Ar -0.3219843472793033 -0.1868965612987727 1.82288329643654
Ar -1.296308414682269 1.338442394357184 -1.826281819018393
Ar -0.4471419354064422 -0.0794421979508642 -0.3100371694152333
Ar -1.660326402263716 2.241864546956994 0.1093511202030532
Ar 0.3117697622242182 -1.665266804220515 1.653380690208368
Ar 1.241004131391109 -0.2425630317080495 -0.7509999623731061
Ar 0.6977499227858943 0.5940929334901521 -1.97917875972709
Ar 0.2497065496291279 0.753306022365705 1.535195607959599
Ar 0.8860088228219547 1.350916600074379 0.008477243963553467
Ar 0.9399044671855699 1.525669167835662 1.117285018094424
Ar 1.102325382103722 -1.44972295445765 0.009409281208168753
Ar 0.006896785546422734 1.047432220487782 -0.6199993470358219
Ar -1.309339419293904 1.481013047720602 0.8207394915563119
Ar 0.1109815677201626 -1.877713688938453 0.563650996110296
Ar -1.860805102541243 0.491785226769977 -1.365524196240237
Ar 2.31917000052792 -0.009618509142300278 -0.7272818887646914
Ar 1.659787037732325 -1.898824951873244 -0.831333150844397
Ar -1.818849321009247 0.4771594694067634 0.7406168740816136
Ar 1.629979001778086 0.550552561447312 -0.08578144832008301
Ar 1.290224030117524 -1.133000209491226 1.715772499749412
Ar 0.4890667801029122 1.572017318200732 -1.500615296748546
Ar -0.3236082153799857 0.8234518828226544 -1.655714593849274
Ar 2.100498907379823 1.071071897757558 -0.9228891017421952
Ar 1.335224261007745 1.872994863678707 -0.8367304742964964
Ar 0.2538642039660263 0.06789443171843859 -1.109960529288547
Ar 0.2796815703693229 2.112731813539869 -0.549190628761154
Ar -0.7877882952008232 0.589939570518047 1.234043365198518
Ar 1.287378074569682 -0.3851612737853209 0.3089910150814699
Ar 1.143893927498979 -1.971276043157906 0.9725660272292805
Ar 0.9132750285273588 -2.495928951063696 -0.01706705130849531
Ar -0.5248853407222319 1.829505904309144 -1.206643614219514
Ar -1.027519663292482 0.9215902575439114 -0.8357607917973867
Ar 2.345268932674461 -0.1664027353072659 0.3819741179974656
Ar 0.4226472276980726 -0.8301267739178982 2.373958954252722
Ar -1.831038987688434 1.158162288688916 -0.1381273477643292
Ar 1.711158237425881 0.2635135240124576 -1.607321378017009
Ar 1.866351853401188 -1.147315599358178 0.7841535722232102
Ar -0.7656659678419253 2.66562757681014 -0.4791586458957435
Ar 1.126832905448232 9.837495039189292 4.565257400213523
75
algorithm=ssw size=75 seed=0 index=5 energy=-362.7229385211812 entry_id=5 visits=2
Ar 1.328896752007079 -0.1783701481379781 -1.833070628811416
Ar 0.9201532098091493 -0.7550676607941881 2.342571069077009
Ar -0.9520759164131343 -1.270047683170588 -0.01299146973297557
Ar -1.816044311737208 1.322619914606848 0.5354433881301095
Ar 2.271292666702365 -0.2920295281813655 -1.226000386194003
Ar -1.250180257930798 -0.4141351450262367 1.884731935629355
Ar -0.7361565198714732 -0.07048093001485517 -2.671858663780344
Ar -0.1872446534342839 -1.814854644939987 0.5532151429443999
Ar 0.7848676628015384 -1.356470299520035 0.5776854828893722
Ar 2.104354436494864 1.190458853639893 0.522437471045036
Ar 0.3549290440634423 -1.145481717034958 -1.480902286282095
Ar 0.3891333958961483 0.02103652326092225 -0.1915936922558535
Ar 1.304347154270591 0.779814683737271 1.232739709856779
Ar -1.141301938982571 -0.2183666391018201 -0.2232395975831806
Ar 0.7728251691279836 0.8346335284451114 -0.7982569794352286
Ar 1.436909843023376 -1.038933924061075 -1.207306743114801
Ar -0.1884832899648776 -0.6245876540838707 2.275843817616892
Ar -1.984248928862406 0.8908881384398949 -1.277024430347413
Ar 0.9336262906284016 -1.948559089964561 -0.9532919868387033
Ar 0.3283337824441122 -0.257329949618352 -2.31825648834173
Ar -1.368267145741979 -0.9077208536916254 -1.014497442813286
Ar 0.6530697734232964 -0.9661237865101796 -0.4466259521244739
Ar -1.233386238373209 0.5652767837027759 1.153364570029171
Ar 0.4254037598709027 -0.7693224243404673 1.369934293111091
Ar -0.4911396588202017 0.3311983106935931 0.3794499737072599
Ar 1.391378790614741 -0.3190747010814376 1.40661273354048
Ar 2.539931820904692 -1.729044030377804 0.1627614250997594
Ar 0.5313390668597079 0.1487452753285499 0.8297308182866525
Ar -0.1169137220096142 -0.7068343754126817 0.4208350593715463
Ar 2.230523190896386 -0.594713351312116 -0.1714372876780738
Ar -1.27337793934968 0.8247929559045731 -0.2912046584724375
Ar 1.083416587333409 1.627400128862293 0.5287097221643647
Ar 0.5457163681653834 0.2077612632290533 1.915884571649434
Ar -0.5503528223303014 -0.5735264135090404 -1.728485382005259
Ar -0.7369647712695463 1.370857665681581 0.5695749969281163
Ar -0.09190190390845369 -1.726121628277405 -0.5524566115336548
Ar -0.5697398529369044 -1.178978951830732 1.366727848597886
Ar -1.361969873109826 0.6827078556030095 -2.168643088987607
Ar -0.3234293578843761 -0.6466785528009483 -0.6905839356274827
Ar -2.410445632218183 0.9407932608103745 -0.2899506644061013
Ar 0.6161859122741621 -2.260797119894655 1.168846166868039
Ar 1.34185102957127 -0.1010654335262845 -0.6959718448089963
Ar 0.7538480870364941 0.7433523777601729 -1.897947518209417
Ar -0.3731349735274859 -0.05874716113765782 1.367554444071865
Ar 0.2500720835000527 1.051124803765005 0.1540165969019377
Ar 0.02081275781694879 0.9799690633356967 1.251880756017694
Ar 1.551147280960095 -1.417386031747774 -0.1685323993749401
Ar -0.3021945764290874 0.6067100537632831 -0.7163089902654327
Ar -1.928030241588575 0.2135073407333975 0.3782602611692735
Ar 0.7246399603789888 -2.279957734646685 0.04598434442762683
Ar -1.621624671481159 -0.38884930149211 -1.989436228507812
Ar 2.214750456954896 0.4851446410489821 -0.3617900042363887
Ar 2.388057981767516 -1.440278843249581 -0.8885192398916087
Ar -1.974394123251244 -0.8600871603081506 0.03332389443521057
Ar 1.253015745919743 0.6072444012134383 0.1485614964856803
Ar 1.273866881367999 -1.446467251035738 1.554708130429731
Ar 0.08972726705436383 1.450894772528228 -1.362005825329662
Ar -0.3159731046601323 0.5192480806712725 -1.822782148082118
Ar 1.627866736848318 1.433864263380729 -0.4591144357300475
Ar 0.6066695722984382 1.873465564793584 -0.4667226662920843
Ar 0.3991409726182265 -0.08623976650941335 -1.253419669573805
Ar -0.491233529352858 1.654803772682106 -0.433390344219731
Ar -1.184750352879068 -0.5051017989488321 0.7880750829234151
Ar 1.240464111624946 -0.4522281680393511 0.310244077988029
Ar 1.61339767492225 -2.092802600042785 0.6924832109106913
Ar 1.799590344506986 -2.428587206359038 -0.3847248315900016
Ar -0.9790062320257612 1.261572918932117 -1.309316965159914
Ar -1.141937321714194 0.1763349145682995 -1.20826729681238
Ar 2.091464388795461 0.1028849073332724 0.684348226959772
Ar 0.2502807478203165 -1.624722230446767 1.999810173765059
Ar -2.089141384737751 -0.04841803778413255 -0.7177583875167897
Ar 1.725691144749223 0.7166077335231146 -1.324075548698944
Ar 1.972821740839707 -1.047346982314825 0.8116022614136196
Ar -1.662772615958141 1.773117735704707 -0.5629512498870503
Ar 11.56999107510789 38.91429451217608 15.5600418846131
75
algorithm=ssw size=75 seed=0 index=6 energy=-362.6845802150262 entry_id=6 visits=1
Ar 1.762082977339622 0.5640398690054135 -1.026628081205665
Ar -0.03206707460924656 -2.725535022493758 0.832481580787819
Ar -1.108992431806028 -0.6708099002166638 -1.054371278915378
Ar -1.693147062550143 0.7456438214817404 1.303480422794999
Ar 2.478378815543224 -0.2413106327250086 -0.6621498958474609
Ar -1.893730670542981 -1.372379869345963 0.8442408295974146
Ar 0.1369098579698518 1.97171017349783 -1.602674930078952
Ar -0.7350784744740213 -1.743147100710403 -0.9070500625355867
Ar 0.3166293634701243 -1.669027697658651 -0.7003925757616477
Ar 1.91397030104909 -0.6712017841297441 1.513031097623279
Ar 0.7497656674532369 0.1503685159780798 -1.692813297825254
Ar 0.3886770092993158 -0.2082339457725385 -0.00616517333162088
Ar 0.8812793238049869 -1.16062705016257 1.510323128812545
Ar -1.008002892882863 0.1655716885896757 -0.3449755898150338
Ar 1.066061045080685 0.5746542113997705 0.3455713908547746
Ar 1.640507500143035 -0.4476635938951998 -1.358128032549334
Ar -1.01024814148965 -2.241811974914033 0.9294934346033377
Ar -1.354176139823652 1.886097109747079 -0.1198901325874605
Ar 0.8862235478808729 -0.9457662158321823 -1.959661378307204
Ar 1.007207701322603 1.262862430018759 -1.442166105615138
Ar -1.104694491263045 0.4592663242076904 -1.372173375931821
Ar 0.6681705141166263 -0.6286244953952691 -0.930119323207228
Ar -1.474900253996118 -0.3483685143630998 1.129254834686274
Ar -0.2179310434884266 -1.821085978764948 0.2271754194789146
Ar -0.5722502272240959 -0.1702396134960342 0.5376839065195508
Ar 0.7493457055843797 -1.931908702013995 0.7086273522688693
Ar 2.098008224382415 -2.220681429001489 -0.9950736124863738
Ar 0.2088929584851463 -0.9558458977753471 0.6933543415692168
Ar -0.3829438268817564 -0.8912901852673322 -0.2833448175274625
Ar 2.036382053008388 -1.189336409315123 -0.3246622869358955
Ar -1.008696913206155 0.8790144171492643 0.4469604153570269
Ar 1.014339776546492 -0.0820953813041433 1.781779420982554
Ar -0.09716429462540276 -1.746903055393112 1.383595160835215
Ar -0.03932426727030707 0.9100249124712672 -1.449579937337577
Ar -0.6959572626751731 0.3600790915210905 1.474085244349276
Ar -0.1561117682200514 -1.006918110357707 -1.485298010409706
Ar -1.30015124940095 -1.778850953864436 -0.003270639595079712
Ar -0.5213383615113997 2.233320295292371 -0.758627789033626
Ar -0.185792344455244 -0.02202684348257569 -0.9589794081810838
Ar -2.065779336535697 1.32154189950001 0.4606262336174491
Ar -0.09336414801133669 -2.620335537986426 -1.090386808298501
Ar 1.448082297574093 -0.2209404349347622 -0.3025776078963195