13
algorithm=ssw size=13 seed=0 index=0 energy=-38.35187975404729 entry_id=0 visits=2
Ar 0.7071934518903594 -0.3639700419845446 -0.6181732677290761
Ar -0.4438542203670312 0.4525031960897358 1.096124886546838
Ar 0.07875090013262905 1.034571474670965 -0.2689490827107821
Ar 0.657375359468804 0.6300941487902789 -1.123876687746318
Ar 1.123669437366627 -0.4310212786369508 0.4125904026891349
Ar -0.4922389556513838 1.444384054807176 0.5908920261082004
Ar 0.29967873002688 -0.2863097551120376 -1.654455346369312
Ar -0.8578262329494826 0.5304956907879425 0.06588860862932171
Ar 0.5488018186810517 -0.02522401364861088 1.267856857983312
Ar 0.1280377775355659 0.04379687185335743 0.2354184148585368
Ar -0.2816195035214351 0.1215547176433319 -0.7934003661935094
Ar 1.066749670770685 0.5529847021414298 -0.09381373214372946
Ar 0.4949457867901368 0.9586785379115176 0.7605441561221513
13
algorithm=ssw size=13 seed=0 index=1 energy=-41.04458337371015 entry_id=1 visits=3
Ar 0.3040114110188197 -0.5300767271686965 -0.532012507187516
Ar 0.327621150744409 1.135155444398996 0.8625733064793584
Ar -0.2653291394036359 1.156713294879601 -0.0972122997157194
Ar 0.2872346654389811 0.5412860240021684 -0.8666326143589501
Ar 0.9133109270756513 -0.5912587330114043 0.419701032011626
Ar -0.6106048080719846 0.4647785873326081 0.7236355703870522
Ar -0.7347881081661182 0.9274958468926893 -1.080349142665173
Ar -0.244721115340267 -0.6045064286991765 0.4557386810423451
Ar 1.267368844568461 0.4848828194831909 0.6713600370395681
Ar 0.3166849067921094 0.2826618420576827 0.1978136657740398
Ar -0.6125031204085842 0.1014882361173527 -0.3439768263885514
Ar 1.218572952278648 0.1255522064135726 -0.3991873671386764
Ar 0.8628054536467724 1.168365892615093 -0.1348046652345541
13
algorithm=ssw size=13 seed=0 index=2 energy=-43.89940494856451 entry_id=2 visits=5
Ar -0.7109534567488378 0.09033624662039831 0.445743468185438
Ar 0.9681726475071666 0.8194503188024784 0.6367630964788294
Ar 1.177063478316043 0.6269605525762392 -0.4647131335519369
Ar -0.5020738717265405 -0.1021349362739969 -0.6557377369953563
Ar 0.2722395885318732 0.001102115322525353 1.010802605918134
Ar 0.415094824184806 1.414470576997735 -0.1594687454134541
Ar 0.1938642284862007 0.7162270833968443 -1.029774720167423
Ar -0.1441243181443329 1.027662987618821 0.7524447077982522
Ar 1.088770042351541 -0.2465496031058005 0.2585483298365452
Ar 0.2330498753274444 0.3586569284721416 -0.009488001114228843
Ar -0.6226722043242839 0.9638553813095658 -0.2775255419833869
Ar 0.05101649708704611 -0.6971572120284293 0.1404890609635095
Ar 0.6102166893252805 -0.3103421343949053 -0.7714365199094851
13
algorithm=ssw size=13 seed=0 index=3 energy=-43.89940493747978 entry_id=3 visits=4
Ar -0.2124147041299851 0.7076235832731386 0.9125543765334331
Ar 0.193768532859325 -0.3496627768869114 0.8072841956955994
Ar 0.9079869791492062 0.5356227573087214 0.8172604857982017
Ar -0.7414652082728824 -0.04040277383556881 0.2383840586063223
Ar 0.05194962160069416 -0.6747146279981853 -0.2735284573965779
Ar 0.272328035708261 1.066985063734275 -0.8262528619727506
Ar -0.4418703859431113 0.1816937765351177 -0.8362502920501995
Ar 0.4141517690832111 1.39202272919583 0.2545682184678327
Ar 1.071366679028211 -0.3187080843135104 0.08422911273579763
Ar 0.2330519642437096 0.3586569329946502 -0.009489779406452086
Ar -0.6052599988821576 1.036026565456955 -0.1031963660422888
Ar 0.6785066428793854 0.009681889125888203 -0.931529686951778
Ar 1.207564092849599 0.7577132707201037 -0.2573861339741987
13
algorithm=ssw size=13 seed=0 index=4 energy=-34.59006306206714 entry_id=4 visits=1
Ar -1.140638667963687 2.26353339888726 0.5518530146353534
Ar -0.09497355650202542 1.834682931066822 0.7029515913978911
Ar -0.3670574979855504 2.357721489998147 -0.2610136807204594
Ar -1.25790101055928 0.438674902854007 0.2502139354489116
Ar -0.1443755811950802 0.7015271872288582 0.5261496100849249
Ar -1.506246264774419 0.9978716350830047 -0.7250404025067395
Ar -2.306128236824141 0.4902816299941106 -0.1377124355624528
Ar -1.435208373121159 2.104706037107169 -0.5254148613258059
Ar 0.2498965982943467 1.411372010982493 -0.2852136445549857
Ar -0.7994178043758978 1.38395762839492 0.00526660046504151
Ar -1.853299150785827 1.42389720550493 0.2693751388254633
Ar 14.26819339185708 -12.32490843545848 0.5506567328430211
Ar -0.5831798258912667 1.57922068366758 -1.045424728987251
13
algorithm=ssw size=13 seed=0 index=5 energy=-39.00542301440275 entry_id=5 visits=2
Ar -1.132610308094911 0.3509983965215486 0.5229896140037369
Ar -0.6422937191276191 -0.1649806951390991 -0.3459969473903062
Ar -0.2397687182793408 -0.3112696796152779 0.684273133937687
Ar -0.9945533043802683 0.8730575798147937 -0.4915771694565907
Ar 0.03343539516394713 0.5596843643946693 -0.8871394427818754
Ar 1.885860172733023 0.8356688689384417 -0.5874948056135134
Ar 1.501808831170227 0.01333142069378985 0.06535099076625504
Ar -0.3051226457510735 0.6225040171255535 1.273000455605173
Ar 0.4441834192095689 -0.1816960932744696 -0.1687138822572365
Ar -0.1520606229587969 0.69871937593978 0.1892642167855051
Ar 1.088996139475562 0.1633874072317338 -0.9912342852555285
Ar 0.8526182711864078 0.8817781703921052 -0.1772691161864519
Ar 0.6891711098265602 0.3213551722871119 0.7911941078863491
13
algorithm=ssw size=13 seed=0 index=6 energy=-35.81630505816445 entry_id=6 visits=1
Ar 0.538730048112841 2.141838250522843 0.714878128176482
Ar -0.2719505680115717 3.106545026779423 -0.6670654637746651
Ar -1.655757962066787 2.238099617904621 0.8677918650632749
Ar -0.1378666877491566 1.270536752965944 0.5604007931836583
Ar -0.0134043778188604 3.082435161677444 0.4186826993421652
Ar 8.322847247531845 -21.76080825460904 -7.236435436384096
Ar -1.037300606597493 1.343061881704786 1.221152506665275
Ar 0.1447546434538757 2.801817465943339 1.514321628950184
Ar -1.058026443737017 2.755387003210315 0.04359147230093987
Ar -0.5595619626259899 2.25855059374326 0.8733120031386975
Ar 0.00503497523713732 1.669406366771868 1.595448724994221
Ar -0.1486040286104835 2.126646187290912 -0.1561408598265732
Ar -1.099230256944245 1.629022251407757 0.1267088082159668
13
algorithm=ssw size=13 seed=0 index=7 energy=-34.79777362059954 entry_id=7 visits=1
Ar 1.156259419411388 1.538016936916589 -1.961731805445126
Ar 0.4163867617212453 2.012351614660614 0.5884984484496784
Ar 1.805909293574922 1.368213671732436 -1.047545232315588
Ar -0.586036254446609 1.749349443305982 0.1321458264412583
Ar 0.2956569876142386 1.082725051847764 -0.001945950102522824
Ar 0.1716891406450087 1.959612268493451 -1.601155095011647
Ar -0.7286556995342818 0.6516280126543973 -0.03213524913763598
Ar 1.141883581037954 2.256701482026668 -1.114841753716498
Ar 1.217707654442938 1.700024872065979 -0.1443473831285802
Ar 0.2463966657742714 2.105003272952451 -0.5006120630860482
Ar -2.433699530409324 -14.25450830602203 7.44691268976493
Ar -0.3869758988261027 1.288716758376303 -0.8817684965436328
Ar 0.713141899167381 1.204703226295756 -1.00482706612373
13
algorithm=ssw size=13 seed=0 index=8 energy=-39.19910617116415 entry_id=8 visits=2
Ar -0.9567314444680172 1.126794799164536 0.005518559999177277
Ar -0.4334763194242724 -0.6536811441843102 0.1477051874058351
Ar -0.5120967208729424 0.3489509582722681 0.6612613694752063
Ar -0.3904828787995739 0.2756428399602973 -0.4535935238181451
Ar 0.6565191672479576 0.5266499898508911 -0.7210436587197313
Ar 1.129594167564246 -0.2240120246707203 -1.391588352438647
Ar 1.36088504439586 -0.2201863565302452 -0.2972249477432238
Ar -0.431096452099768 1.415288722739961 0.9634521779641889
Ar 0.4423896651380314 0.008127480965772534 0.2594538453465965
Ar 0.1488092822922283 1.08088059944298 0.08082013697663022
Ar 0.3349179999152207 -0.5489221296389624 -0.6785940959282941
Ar 1.215480559801357 0.7840890032525875 0.2188335725519301
Ar 0.4649519494825805 0.74291556668563 1.081646598971796
13
algorithm=ssw size=13 seed=0 index=9 energy=-40.28301035184726 entry_id=9 visits=3
Ar -0.9883542033427959 0.605422182843927 -0.1672892197341067
Ar 0.1361553823736096 -0.9066616680768659 -0.06547993158449457
Ar -0.3894394017397789 -0.0722747170036748 0.4975848280993472
Ar -0.1177493735109471 0.04116529416142876 -0.5721051959369252
Ar 0.7647983026800996 0.7074592796710903 -0.6621041521796713
Ar -0.2766393689962338 1.074974427600635 -0.9263639287987556
Ar 1.65539927307589 0.2215418440656278 -0.2147703806604375
Ar -0.7479681291685706 0.8951927676819892 0.9036124731421811
Ar 0.6700280107001294 0.009660287855507509 0.2300773234857139
Ar 0.02622223059863983 0.9159527943237172 0.1200637928608829
Ar 0.8846274451536509 -0.4038280387218389 -0.7655936652873413
Ar 1.095363554383961 1.007767544810571 0.3823168984789206
Ar 0.3172202979653591 0.5661663060984689 1.116698028157973
13
algorithm=ssw size=13 seed=0 index=10 energy=-40.28301033935303 entry_id=10 visits=2
Ar -0.6246104216897053 1.276264629228801 -0.004544145504144448
Ar 1.456151634862054 -0.3937643058765204 0.1385404148980298
Ar 0.08526629651357975 0.6954145299452591 0.6270167524288789
Ar -0.6548567470115828 0.1541829544861868 0.002335307494286249
Ar -0.1284400362528385 -0.2241644302226007 -0.9304061135534736
Ar -0.8041292271838093 0.6874166289222332 -0.9582762019935157
Ar -0.2520342148437684 -0.3015973459181175 0.9612417599789215
Ar 0.4625854208831165 1.601231063598573 0.1204219205454918
Ar 0.3697688962741877 -0.2306003772456932 0.05551162665469309
Ar 0.1932945414807657 0.7269736734849729 -0.4920952574809878
Ar 0.8506517665816492 -0.01191064764130793 1.019526027606347
Ar 0.993285226744178 0.03285842940994875 -0.8059470531386
Ar 1.082730883815153 0.6502335031391134 0.1433218321074292
13
algorithm=ssw size=13 seed=0 index=11 energy=-35.88138273576388 entry_id=11 visits=2
Ar 1.608861603969471 0.4908990961013817 3.703872365439306
Ar 0.8226370411502633 0.3706840779640347 1.125288591432522
Ar 1.459227519292218 1.001737373911566 2.718114235067035
Ar 2.182225007143221 0.1479285524510069 2.816690966945086
Ar 1.676106213251416 -0.7736103432753397 2.391897688853008
Ar 1.749388708054977 -0.6115435534603243 3.503464651315289
Ar 2.355374316121323 0.9772153551524392 2.068185671837
Ar -14.04034814263849 1.381975931526983 -28.96663273736079
Ar 1.572096701219157 0.2157521157973327 1.915365518633552
Ar 1.050570928999444 -0.01160695765184082 2.887235275223507
Ar 1.343780890498593 1.25130582568459 1.629530288054977
Ar 0.690433306031946 -0.4355599381820361 1.92107737921172
Ar 0.5593099270792224 0.6573607692912395 2.162556975391125
13
algorithm=ssw size=13 seed=0 index=12 energy=-35.81630506562519 entry_id=12 visits=1
Ar 0.218031030088858 1.943433369540258 1.12536930924854
Ar 1.932580333432596 1.903841388049327 1.943829410375316
Ar 1.40429683326306 2.091004136534268 2.938858412043039
Ar -0.2543900573909208 2.057363467091809 2.14873117362281
Ar -5.629237880441515 -18.39733921440427 -26.95798590247393
Ar 1.280964166722927 1.118047348568075 2.377214738180224
Ar 0.4093545102380314 1.571149691748416 2.893287297380542
Ar 1.195073466342869 1.345707385943098 1.270767606747378
Ar 0.6671187597122618 2.205595592983084 3.769350221533359
Ar 0.851503264772262 2.07701911012754 2.001848830842495
Ar 0.2843814495556738 1.120288338160351 1.879596338617416
Ar 0.2448587674576339 2.936360056441573 1.692649300495788
Ar 0.4251293764193764 2.690067634530053 2.793130133434511
13
algorithm=ssw size=13 seed=0 index=13 energy=-39.70067848050275 entry_id=13 visits=2
Ar -0.4931143492036579 -0.2027801472715499 0.9271356731927742
Ar 1.193575108073883 -0.4640613328889946 0.3373741524607957
Ar 0.5169942116146948 0.2477762988692693 0.8517016935040937
Ar 0.2340050682491064 0.6336761168361985 -0.1286122572999875
Ar -0.4084171496078629 0.8891173147733391 0.7205057578885318
Ar 0.6093763174428505 1.343133795586972 0.6306511106695158
Ar -0.7862931594230399 0.2001860532689713 -0.06839068435840362
Ar 0.9134964719551861 -0.06314572452954943 -0.6627348898987508
Ar 0.5231083807345913 0.868219280960715 -1.153559943927418
Ar -0.1551970512003649 -0.005886326525741369 -0.9583402065295535
Ar 0.125791593118883 -0.4416627274404027 0.03832837266712869
Ar -0.5432127169173179 1.033426529828859 -0.780709031815642
Ar 1.299551295336483 0.6245391738457589 0.1232971234918193
13
algorithm=ssw size=13 seed=0 index=14 energy=-43.89940494751745 entry_id=14 visits=4
Ar 1.124965442368884 0.9578855161900841 0.1161404100024323
Ar 0.354488624495148 -0.5892405983724534 -0.5165527907070481
Ar 1.153255290025312 -0.1774289421732514 0.1808009308325786
Ar 0.2330519708838941 0.3586576507137106 -0.00948889776800056
Ar 0.3087058066619328 1.247747252166143 -0.621181041535435
Ar 0.9524732050585314 0.3305990579050736 -0.8169652290681481
Ar 0.1116109545942328 1.306556928066436 0.4975763161668485
Ar 0.1573967212844651 -0.5304373263678582 0.6022013205537367
Ar -0.6588616746408698 -0.2405729349946313 -0.1351192135901643
Ar -0.4863716209364015 0.3867173245273619 0.7979863836152706
Ar 0.6335718659804839 0.4257479233910277 0.9932360807668636
Ar -0.68715500090061 0.8947432957024908 -0.1997780581310044
Ar -0.1674675647026253 0.2915631585571301 -1.012209341091836
13
algorithm=ssw size=13 seed=0 index=15 energy=-34.59006306536166 entry_id=15 visits=1
Ar -0.4122384190475248 0.07414532897401652 -2.614662922875997
Ar -0.5711912874151671 0.04076654131859507 -0.7871931904959558
Ar -0.7888571696305361 1.117983067766509 -1.130271707920115
Ar 0.4089910041440317 0.8622329844854544 -2.546617835312293
Ar -0.3484932302093607 -0.5822528043870688 -1.699464184077655
Ar -1.60869759797195 0.4477895693017924 -0.7688266058319762
Ar 0.1930110797586805 1.525727886993707 -1.635113273465113
Ar -1.14134849195527 0.2167436408448506 -1.754018991994159
Ar 0.5036000943583547 -0.2085140092587061 -1.061690232831363
Ar -0.09213165213768654 0.4844085250418548 -1.656506248982563
Ar 5.317774126006848 0.1880702786514808 19.30094738547444
Ar 0.593670187097177 -0.1919246248331762 -2.184051902423229
Ar 0.9755753771754514 0.6873619204138078 -1.585883419219039
13
algorithm=ssw size=13 seed=0 index=16 energy=-34.79777361734759 entry_id=16 visits=1
Ar 0.9331610000206667 -1.656377129563246 1.841321030625259
Ar -0.1966366909369748 0.1332309464699599 1.238501510015805
Ar 0.260074452289823 -0.8338755800058756 1.536132931649777
Ar 0.9015611860694837 0.06456890613317004 1.283255299754253
Ar 1.339305192129345 -0.1000641467534116 0.2808090280766682
Ar 1.231628087392554 -0.9595290498328568 1.006364321613419
Ar 0.3741269084722681 -1.044630098883619 2.615816288719463
Ar 0.3267639900973192 0.0182463212899854 2.234776607408927
Ar -0.5317977424486751 0.08923048524518587 0.1753848162051494
Ar -3.634102865988171 9.513988309298611 -15.31878174777259
Ar 1.242933781715226 -0.6147071618335581 2.073348701103026
Ar 0.4441075687127279 0.5793259756939498 0.4197846370230826
Ar 0.3385391526450241 -0.5268694719478331 0.4899334456389753
13
algorithm=ssw size=13 seed=0 index=17 energy=-33.85697654068986 entry_id=17 visits=1
Ar -1.206667031907068 1.637605937210213 -0.402636038950359
Ar -1.305355195783875 0.7208556409388478 -1.068515519927695
Ar -1.082027774256557 1.716961315724058 -1.513938152788318
Ar -0.320075347713706 1.173611685010411 -0.8675987650106846
Ar -0.1968730638483846 1.737245411533918 0.07859985057461326
Ar -2.08698618280832 1.519382808383613 -1.076633579424847
Ar -0.4382391894455246 2.306304306726316 -0.8444588617002907
Ar -0.5489162588072746 0.8198303271724912 -1.894257658077125
Ar 11.16535152384711 -14.17914068884578 11.494915893245
Ar 0.4362844605605869 2.74799815147634 -1.3704993852036
Ar 0.01081023955955882 1.780963336341902 -1.730530354366511
Ar 0.5645124773447234 1.826611174606466 -0.7491027793762125
Ar -1.962154636569435 0.8543088990334687 -0.1786977789475916
13
algorithm=ssw size=13 seed=0 index=18 energy=-34.9909481480938 entry_id=18 visits=1
Ar 0.6251731861680255 -1.704103918785602 0.6145253864676661
Ar -0.3510329942036489 -1.69321335672389 1.166155657569128
Ar 0.1058569221655437 -0.7237425107475978 0.88306220250489
Ar -0.3008466861874282 -1.425857298945618 0.08897965683714386
Ar 0.5485081765544227 -1.836238209216687 -0.4972586026569718
Ar 0.5923167343711109 -1.340678600795174 1.665663985447699
Ar 0.6467405148845198 -0.8207799891877173 -0.06684110775924644
Ar -0.985071100014824 -0.8560626306500718 0.7471963218396475
Ar 0.9623263970078034 17.16819505387919 -3.920120811789692
Ar 0.4118980254831253 0.01361840253267254 -0.758524269554409
Ar -0.3682728706689498 -0.3294828141982315 -0.03850224101587013
Ar -0.07174648865204589 -0.9867995066466605 -0.9020726930127722
Ar 1.213814203264424 -0.802316315202539 0.8943833851681896
13
algorithm=ssw size=13 seed=0 index=19 energy=-43.89940496288968 entry_id=19 visits=9
Ar -0.2739988476715218 0.4646063690365936 -0.9592506918340514
Ar -0.339432669170428 -0.4937864136284381 -0.3500419701367548
Ar -0.2793730461118722 -0.2151019219710398 0.751166637558525
Ar 0.7454741816159131 0.9324156184715261 -0.7701449781520716
Ar 1.310110521522098 0.2631459488076583 -0.04406083929050526
Ar -0.1734982727299706 1.335609953183643 -0.2345524183222277
Ar 0.6396007668777873 -0.6182965205999663 0.2155747686278509
Ar -0.8440079633374346 0.4541689542724098 0.02508308174739584
Ar 0.2330519999126534 0.3586562753146624 -0.009488281846812613
Ar 0.8055356656687124 1.211099732172476 0.331064757637068
Ar 0.6429215947951152 -0.1982131667903603 -0.8415207322286344
Ar 0.7401000303800755 0.2527066668475184 0.9402744988380177
Ar -0.1768199415782451 0.9155268101936962 0.8225430374458115
13
algorithm=ssw size=13 seed=0 index=20 energy=-34.79777361960218 entry_id=20 visits=1
Ar 9.538940552371264 -4.502465547688844 2.33289486871328
Ar -0.1890796731683339 -0.6528957471181546 -0.9001713588181662
Ar -0.885894633818651 0.1784393775542542 -0.6565654189079034
Ar -0.6324978178008587 1.729844167606213 0.27176658579858
Ar -0.6911851986952449 0.5918617639230563 0.3364669600627228
Ar -0.4692440881219463 1.199036635201185 1.233809919465323
Ar 0.1633559819221224 0.1668386981332535 -0.2306072126586359
Ar -0.01873898850860772 0.3665551677026064 -1.329151873803057
Ar -0.2616694497710348 1.126137884114495 -0.5650399931636739
Ar -1.496650719305675 1.224120815515906 0.753810555886494
Ar 0.2884475422311877 1.096570173131875 0.4016163596473492
Ar -1.353793185515644 1.151119424221486 -0.3624864886908515
Ar -0.9623263016458167 0.9873754930128423 -1.409696033487765
13
algorithm=ssw size=13 seed=0 index=21 energy=-34.79777354587748 entry_id=21 visits=1
Ar 1.662680920982271 0.4240907825039915 -0.7016171191572274
Ar 1.443689732469216 0.4870787551776909 1.097285351092592
Ar 0.8195668855903442 1.411702990279126 1.091099635007728
Ar 1.299473359401462 -0.6401623137224967 -0.7871101095430401
Ar 2.253963265711152 -0.4211635984608393 -0.2618634521739046
Ar 2.033917435647506 1.431243922539967 -0.3487111281440734
Ar 2.074729743188551 -0.4183936626796935 0.848947981381947
Ar 1.140602983266231 0.9741080264522644 0.1208188893338754
Ar 2.177415260961558 0.5305560156628363 0.2772172789719788
Ar 1.56425352275445 -1.172005141619652 0.1791429770772831
Ar 1.249442875165942 -0.1118059260786503 0.1829411602086491
Ar -16.58093348447883 0.6926932058163918 -2.595256197845407
Ar 1.89086151951134 1.474595249439586 0.7737516038319248
13
algorithm=ssw size=13 seed=0 index=22 energy=-30.37949626282566 entry_id=22 visits=1
Ar 1.462924937829073 -0.3085745149091669 -1.024842019782254
Ar 1.369818361213501 -0.1848610035597217 0.08629046556575773
Ar 1.226148076221478 -1.361357006401342 -1.290853886676765
Ar -3.322962387852868 10.53595614473016 4.602298495735692
Ar -0.1243367737439155 -2.496721087040598 -1.701772817238709
Ar 1.746027296359309 -1.148190569194303 -0.3331015188788636
Ar 0.5644413807885807 -1.711633351460253 -2.1187220761395
Ar 0.664607014439099 -0.8503581923153863 -0.46349923772644
Ar 0.9270811984048236 -2.426480641230703 -1.339523158731797
Ar 0.1059592703225469 -2.614620962000299 -0.6071940005019599
Ar -2.697164511293326 10.76330877898979 5.50596202573271
Ar 0.1614551114027097 -1.613704097890673 -1.087309248844778
Ar 0.9456650460816604 -1.920225192406704 -0.3510861524698459
13
algorithm=ssw size=13 seed=0 index=23 energy=-39.21752805856639 entry_id=23 visits=2
Ar -0.1886746909529059 -0.2950179481481532 -0.9456083579921355
Ar 0.6187340687921923 0.5477050339986632 1.485510193880406
Ar 0.5536396488038529 -0.3415351113835987 -0.1109983409883088
Ar 0.4050757375184476 0.6105908569531966 -0.6810001024571219
Ar -0.2379433636847934 1.293466016260176 -0.05211545806103732
Ar -0.6771170757512558 0.7241915264874725 -0.9173084213769106
Ar 1.406999368585273 0.352522269217615 -0.2337558213062423
Ar 0.05547862549007521 0.4681266694840518 -1.72459024178036
Ar 0.5566633084657687 0.6700880792534704 0.3944287408121749
Ar -0.3989407416288594 0.2048493464881087 0.01935677437793731
Ar 1.206286495738624 -0.1277306075025218 0.7769921274800241
Ar -0.3692409132924001 0.789481043406179 0.9675286390022899
Ar 0.0987035520865909 -0.2341988692046358 0.8982071384520361
13
algorithm=ssw size=13 seed=0 index=24 energy=-43.89940495889775 entry_id=24 visits=4
Ar 0.1991063126465967 -0.2627690397267959 -0.8943896094051569
Ar -0.4202831876260121 0.07638687537070926 0.8052842068535705
Ar 1.089151043500232 -0.2787084207349712 -0.1862259005911187
Ar 0.8863833037254096 0.6409268197516381 -0.8242601187753527
Ar 0.3782652325943268 1.418902113092444 -0.1681320043140355
Ar -0.2402477828162347 0.7864140732539632 -0.8832081147162819
Ar 1.199879642869612 0.7606195371248027 0.2626249344458942
Ar -0.6230479884770609 0.9960227359998761 0.1672444872270299
Ar 0.233050823926865 0.3586581627352385 -0.009488011192509587
Ar 0.08783644437647407 -0.7015899759685774 0.1491560659347563
Ar 0.2669978649477753 0.9800827452122682 0.8754134440862086
Ar -0.7337738246366682 -0.04331073634097147 -0.2816045424991147
Ar 0.7063461351392275 -0.06909658445951967 0.8642320329888664
13
algorithm=ssw size=13 seed=0 index=25 energy=-34.99094815337496 entry_id=25 visits=1
Ar 7.054802008643192 8.206547392479665 12.89519787166243
Ar 0.6251662829251884 -0.3524192165326356 -1.088919481199775
Ar 0.339045079856862 0.5234981106376073 -1.734398131280454
Ar -0.9426619824632461 -0.1254808704312093 -0.0462347923702477
Ar -1.337320669629682 -1.107468604032425 -0.4347130043761535
Ar -0.897894735146917 -1.278359772661942 -1.455208114806455
Ar -0.785775594321303 0.5913646544604828 -1.752078646094226
Ar -0.2988445190435249 -0.7905650384676928 -0.6602628771364977
Ar -0.2785282265635073 -0.3962767827391329 -1.724720242321578
Ar 0.7701227575577807 0.6881425246648474 -0.7133927459504688
Ar -1.188827833471513 -0.2471504680917978 -1.124506873592334
Ar 0.2308797235202742 -1.34320315217724 -1.460312764989621
Ar -0.2604982716964393 0.2939095282013512 -0.8238033275042809
13
algorithm=ssw size=13 seed=0 index=26 energy=-30.55507350907306 entry_id=26 visits=1
Ar -0.003702520289016415 0.5718225391135923 1.982448817594866
Ar -0.7911926863465543 1.35645516351577 1.795149556360132
Ar 0.8712795262141276 0.9369185386730589 2.591159400683153
Ar 0.9391238563288041 0.8957211693186007 1.484429904425515
Ar 1.787343855417206 1.461040316432925 1.040257876071531
Ar 0.7742122158270666 1.928501300151114 1.065613327829548
Ar 1.35453141127115 1.781661097391615 2.02087163855958
Ar -0.307651113196138 2.200364177662128 1.223879995399521
Ar 0.2567533192364937 1.645755109807489 2.000381688763128
Ar -0.8065669801846399 0.3919786336545179 1.228337393353096
Ar 10.14167683153144 -10.406301629679 -6.038436305939949
Ar -0.02064026337770386 1.149076041387587 1.015117256418487
Ar -11.16550343226204 0.7495458478784333 -11.5325636794789
13
algorithm=ssw size=13 seed=0 index=27 energy=-40.18807133430822 entry_id=27 visits=2
Ar 1.172483098707623 0.790076083649939 0.4571920232857623
Ar 0.2073664562491767 -0.6053158039172549 -0.2041165476278106
Ar 0.6811876362517982 0.2494250551565456 1.336892650115372
Ar -0.453494511795545 1.346404739901739 -0.9708880862303041
Ar -0.679873221377944 0.9702438686779653 0.06277812058213432
Ar 0.3873518082343863 1.214782302448447 -0.2543457302659111
Ar 0.5166167988762467 0.8828761992560129 -1.307509872933811
Ar -0.1948032099854653 0.3083854812933601 -0.6773241725183251
Ar 0.1747389118160766 0.3549616576152153 0.3706246524509457
Ar 1.048853452125783 -0.3325751764601046 0.4674206152771535
Ar -0.7578233301016341 -0.1697228786793648 0.1702429612945658
Ar 0.8939509482057076 0.2394149952432105 -0.4746940168571524
Ar 0.03310918296430677 -0.5864182188759101 0.900374273470062
13
algorithm=ssw size=13 seed=0 index=28 energy=-41.04458338036356 entry_id=28 visits=3
Ar 0.5766283094783571 1.554228794198969 -0.05268581289668533
Ar -0.5852873373156633 0.1814161027650003 0.2548716611307177
Ar 0.5279369739107829 0.8983087352475339 -1.006586706178334
Ar 1.206988945929437 -0.1569603990178122 0.387970284639409
Ar 0.9117903479892245 -0.1638011205215401 -0.7353271208164645
Ar 0.9966945805250913 0.9014446134212062 0.8099845958861576
Ar 0.2640544184357664 0.0554129516511267 0.977932090252108
Ar 0.2192287534664325 -0.5844044169928554 0.04903265099761174
Ar 0.4335439526599745 0.4833044821131366 -0.01279141880185586
Ar -0.398921145334209 1.085687580068348 -0.3835904950860429
Ar -0.8168720533267634 -0.7381933645713491 -0.3282603362458786
Ar -0.1134638709336478 1.090401055083385 0.7129595662597101
Ar -0.1926578553144814 0.05569329186602801 -0.7968620891006968
13
algorithm=ssw size=13 seed=0 index=29 energy=-37.5669040824022 entry_id=29 visits=2
Ar 0.5689746047380204 1.118396269404668 0.002959170722878255
Ar 0.6466794950730612 0.02689293338503131 -0.1516114737906487
Ar 0.3789613799979835 0.646589627028599 -0.9992378903055695
Ar 1.419328974721292 0.2354692545415127 1.46653819172103
Ar -0.318965058840725 -0.1734724905648654 -0.6391403623225781
Ar 0.4799468627920457 0.418282014914645 0.8977521670927184
Ar -0.06351249944684546 -0.5014146298372411 0.4814905995100514
Ar 1.057879917338815 -0.5083635973598405 0.7138326933150844
Ar 1.460216472618209 0.5254809172768327 0.3879007519516938
Ar -0.4111762590661874 1.286874527191247 -0.5855426448273269
Ar -1.210091230694655 0.4928349952694261 -0.4741084164070664
Ar -0.3387287070817785 0.528007717985184 0.1963477326648524
Ar -0.6398499319802845 0.5669607660762491 -1.420533649282798
13
algorithm=ssw size=13 seed=0 index=30 energy=-43.89940495989831 entry_id=30 visits=4
Ar 0.2861962587734528 0.5953889882740769 1.044791554241605
Ar 0.2330507354826032 0.3586578148264503 -0.009488165554370325
Ar 1.164296789183391 0.09762456956289452 -0.4942744545926466
Ar 0.9422667313430289 -0.2084297040487304 0.5785576642258405
Ar 0.1799104164876234 0.1219251470612103 -1.063771849166852
Ar -0.1793415757183207 -0.3732824265986072 0.6721078324023253
Ar -0.6505033703694096 -0.1691097255281483 -0.3429045382367828
Ar 0.3633567408426984 -0.6809160082275914 -0.2790863248386528
Ar 1.116608448932108 0.8864233369614786 0.3239272566896712
Ar 0.1027437880962786 1.398228315521625 0.2601092589848898
Ar -0.4761670695210742 0.9257435066068398 -0.5975312469611068
Ar -0.6981944102144224 0.6196909409233045 0.4752979110709947
Ar 0.6454405368509528 1.090593549976665 -0.6910880282226182
13
algorithm=ssw size=13 seed=0 index=31 energy=-34.79777360912313 entry_id=31 visits=1
Ar 2.294547258019901 -0.2844748103012191 1.628413479849815
Ar 1.200449742068721 1.248910022679514 0.4305224510710412
Ar 0.7267255200908067 0.4597929760840306 1.054113898551887
Ar 1.448467665294413 -0.9345046259591882 1.985697960667439
Ar 1.962179674388356 -0.2653375122993847 2.708366761990753
Ar 1.345550279109895 0.2000895930312951 1.916985316257012
Ar 1.244565307248016 0.177725495134227 0.1096481064170448
Ar 1.854609267393111 0.5399446556480202 0.9908196924010159
Ar 1.394538959620875 -0.4605784112578201 0.9984272371163068
Ar 0.8324545546868501 -0.3667346685898762 2.71580061963965
Ar -12.16317075030521 5.260896810515651 -16.8261626994046
Ar 0.3976944957986517 -0.4527828022105136 0.518982597339013
Ar 0.4910520467508107 -0.4604084171661417 1.645031448144036
13
algorithm=ssw size=13 seed=0 index=32 energy=-30.55507351184439 entry_id=32 visits=1
Ar -8.134969597633255 13.90611935530086 -3.955663918619746
Ar 1.077683906012658 0.1580034037214919 1.635069613837285
Ar 0.8761850645835253 -1.050596205434597 0.2944406623582639
Ar 0.8857556673481799 -11.88962362031542 -8.384518120831006
Ar 0.3471295763241637 -0.453848523645628 1.075223185967169
Ar 0.7009819577983747 1.189200920910904 1.771761015328508
Ar 0.4091033665025056 0.6353833241301213 0.8479858206835216
Ar -0.003902703335424682 0.310200133186355 1.825145799510635
Ar 1.390524416182964 -0.8364021222029652 1.264624729825777
Ar 2.095026717516562 0.04281350739214262 1.209807428099813
Ar 1.478773765581007 0.9597160193831443 0.9886258750353433
Ar 0.680243552309013 1.71177625940268 0.7827482890258178
Ar 1.227128330978696 -0.02020414651519933 0.5213964898212322
13
algorithm=ssw size=13 seed=0 index=33 energy=-30.55507353053202 entry_id=33 visits=1
Ar -0.8298725408453275 0.3683428681397577 0.4694326229514999
Ar -1.207913463802869 0.9884120606997178 -1.195255673124588
Ar -1.554030586912037 1.779019083785961 -0.4539542265441265
Ar -1.642756651792779 0.6923741936459594 -0.2232678400275144
Ar -1.332114106546383 2.775313017482811 -0.8949993259929169
Ar -0.6417537818023252 1.209164387654079 -0.2334245079117098
Ar -0.1009463824437145 0.9363562487508379 -1.163081681705666
Ar -0.6334277652943714 1.926293617252691 -1.08639102485635
Ar -2.287652895780506 1.165619241420128 -1.016698476829737
Ar -0.442488587116794 -13.36231471998872 5.838843277100926
Ar 16.09137579748638 4.082749933888416 2.016496335909937
Ar -0.7296708797919649 0.1685976585611152 -0.6268034745963574
Ar -1.659084135187594 1.932610714019179 -1.554249134330893
13
algorithm=ssw size=13 seed=0 index=34 energy=-33.98562341678776 entry_id=34 visits=1
Ar -1.732999871279374 0.3265627002852663 1.629198614931135
Ar -0.9509980180219021 -0.4498830106850666 1.477489564343333
Ar 19.32918957081118 -7.269183574595908 -15.94031351118705
Ar -0.7507243386231692 1.686139419682089 0.9385320650621707
Ar -0.160930104713616 1.228290067196233 1.781480984375853
Ar -1.688810501740745 1.084987042714446 0.8080785695103658