38
algorithm=ssw size=38 seed=1 index=0 energy=-163.8772041978179 entry_id=0 visits=3
Ar 0.3063780283496422 -0.06736666137404114 -0.6363646708683692
Ar 1.250356484090839 -0.3144839523187249 0.7975187818987984
Ar 0.8936740176522134 -0.8611070942260848 -0.1430695346262942
Ar -0.6325141576174614 0.3138406363666067 1.017140830536275
Ar -0.415759969121948 0.7387593769844035 -0.8018125002934188
Ar -0.453872908507733 -1.783598136974012 0.8857420574794154
Ar -0.8132494715252923 -1.778143722220241 -0.1485064197036003
Ar -0.919723766434158 -0.3557297915529507 1.812729901689369
Ar 1.164298369892419 0.7898983258494647 0.6567257071526809
Ar -1.185080080621375 -1.401533901351843 1.649691481154315
Ar -0.1261656789044912 -1.172969195933231 1.754433069109766
Ar 1.114687299893044 0.3241084089794712 1.674480026230486
Ar -1.411287577739112 0.8029473093475719 0.4548262518168489
Ar -1.519795487087017 0.5690459290638845 1.567331552999014
Ar 0.3735359986866067 -1.817096416197898 0.1510794528326164
Ar -0.1942394302443649 -0.900141007662714 -0.1495971902360158
Ar -0.7847719240270138 1.367057529545449 1.235144276608031
Ar 0.3620057690297929 -0.947887134044018 0.7929375121799478
Ar -1.593691652392884 -0.2306481541956462 0.7597556570486175
Ar 0.5154672878762144 1.698614504130362 0.528284710023783
Ar -1.521540038880487 -1.406090474498207 0.6268751373900047
Ar -0.3389598169372165 1.052149322028715 0.2788836213662208
Ar 0.1663216891312657 -0.1662966541331458 1.518362046664406
Ar 0.9797685681410033 -0.9077051008119374 1.685476954671606
Ar 1.313370372399716 0.1372710367252206 -0.2098689199888884
Ar -0.4644042441030113 0.6316462342852697 2.041354833266066
Ar 0.2475636105427115 0.9005661204889643 1.233955012903203
Ar -1.146304378885605 1.439495426213588 -0.3890725215858814
Ar 0.5655516241664861 -1.906207845975783 1.291236600889948
Ar -1.490104809948969 0.3628017522279637 -0.5822179697635972
Ar 1.346807123254051 -1.416489187890269 0.6988994816462897
Ar -1.317224166867167 -0.7534639718125826 -0.2053493447474364
Ar -0.6570021551756603 0.05550282189463965 0.006430697138681982
Ar 0.5708486343402061 0.9364625388710236 -0.2824498549671501
Ar 0.3156431382898283 0.1009507255455677 0.4457731818313153
Ar -0.6945286968133491 -0.3375527540605452 -1.013944399923566
Ar 1.972581670290799 -0.7260724194422166 0.0719540838751145
Ar -0.6658179706930134 -0.7364205754660152 0.8158366416896187
38
algorithm=ssw size=38 seed=1 index=1 energy=-164.011356646913 entry_id=1 visits=2
Ar 0.1363549501586188 0.5948459895051533 -0.551448688715909
Ar 1.323224262010051 -0.1027765053501874 0.6913809119786626
Ar 1.018202273874042 -0.159676030628866 -0.4119401156771529
Ar -0.5137078248139368 0.1953957939509763 1.188779269179241
Ar -0.9030022942907433 1.064039128427522 -0.5452471748507924
Ar -0.08136249904914412 -1.550711440658771 -0.07156784959747049
Ar -1.922614164106778 -1.092782556852891 0.1976577974769963
Ar -0.6854641903331747 -1.021543965659025 1.507673290301532
Ar 0.8874890244720992 0.7950006351639675 1.126075269750798
Ar -0.9887634761694236 -1.57645146677758 0.59708911370594
Ar 0.1477856472011035 -1.535370707165582 1.017911189833908
Ar 1.268399115704069 -0.1147386277716605 1.774295938566052
Ar -1.488738187957307 0.7087460034809873 1.288148637332268
Ar -1.354246926020387 -0.2248250853814995 1.829258456582397
Ar 0.8328477546406694 -1.23786654589353 -0.6400643094184379
Ar -0.002382193906354682 -0.4930680133365146 -0.4682978728571217
Ar -0.7551522140751824 0.687556666176537 2.131764268980388
Ar 0.6221895275007161 -0.8270741894269109 0.3424984249588098
Ar -1.406427091211784 -0.2768416319316743 0.7203317421028488
Ar -0.1052667305365399 1.222572807111213 1.387128988791034
Ar -1.756715201764084 -1.141231627084584 1.300483998613416
Ar -0.7872687560218096 1.12361368834776 0.5658479526456535
Ar 0.3295521327712987 -0.4746454268968662 1.341096778054014
Ar 1.232420230204593 -1.113201814128983 1.176538898441169
Ar 1.174991710654636 0.7963811726166772 0.05108692252007468
Ar -0.3439244471649203 -0.344987838694108 2.263158210674723
Ar 0.33005860051081 0.4321818071958622 1.97942110521402
Ar -1.715321547137634 0.7133839280793016 0.2102988986945978
Ar 0.9677871821339362 -1.843284015835873 0.313263895925767
Ar -1.707703411422598 -0.1614490741018767 -0.4037664796001848
Ar 1.661897186931349 -0.967881624704535 0.08836028086278065
Ar -0.9716390324425824 -0.9339783694178826 -0.3304994618429407
Ar -0.7241447739266788 0.1847035729078465 0.04184402958418135
Ar 0.244658183817651 1.282727113522812 0.3233565132807467
Ar 0.2890425000069338 0.1899158656980232 0.4432238111927833
Ar -0.7903197879784251 0.03398317832809215 -1.022937487318595
Ar 2.048888570488658 0.08287304905042474 -0.1100694750421286
Ar -0.3988027992518898 -0.6794199954578506 0.5484705550635071
38
algorithm=ssw size=38 seed=1 index=2 energy=-164.1985274149037 entry_id=2 visits=4
Ar 1.271221842192308 0.5682692303656344 -0.9538967052724179
Ar 1.262911650311877 -0.6342785100616314 0.436323105073973
Ar 0.6209561763905572 -0.2684081078353482 -0.6414946601814083
Ar -0.196819658685527 0.4639154846594949 1.160265943710196
Ar -0.4651394350357264 0.6492486928453122 -0.5767212628058139
Ar -0.690606144842666 -1.430728187120732 -0.01387012029526218
Ar -1.996816354080307 -0.6976649928603226 1.21155389191457
Ar -0.2872421263247621 -1.384837226278025 1.821634531884714
Ar 0.8291906969198751 0.07921725480159188 1.150341003306865
Ar -1.117077447174152 -1.395892712794018 1.061935147499365
Ar -0.08268609570347581 -1.749163231497113 0.822927605425281
Ar 0.8410438860472595 -0.3801631077999331 2.152317212751973
Ar -1.15416658348407 1.050773797090302 1.0887941913655
Ar -0.7116330043200119 0.6985052491116737 2.082439951866587
Ar 0.05017731724350644 -1.197352581836344 -0.9005403773656235
Ar -0.5042792905786545 -0.4209393219682954 -0.3710346536096588
Ar -0.1789966624263134 1.493858854876659 1.466255966923952
Ar 0.2866014652801767 -0.9566517029275442 0.1510770417212668
Ar -1.170501131176363 -0.008919181143033743 1.355932924036968
Ar 0.6493951020918912 1.085416497279148 0.8127627956772183
Ar -1.216140522176065 -0.8462472635798426 2.029473304269171
Ar -0.33298664971824 1.230734979965201 0.3691643470357813
Ar 0.5348686468832493 -0.9450996011106727 1.24197081335277
Ar 1.003685220746454 -1.697584917576913 0.5675337102413748
Ar 1.270663870272457 0.4106337063373788 0.1543335647287209
Ar -0.2204204587684523 -0.3025613501917582 1.897128830649174
Ar 0.4250698568270054 0.6676860979809555 2.00563778382066
Ar -1.375611542382051 1.13635937167548 -0.02320534329266159
Ar 0.2654325654138162 -2.010199415278794 -0.1961803560136117
Ar -1.905193524061357 0.3075604619919096 0.5842479233673119
Ar 1.098097275684073 -1.284224360739203 -0.4821305597941711
Ar -1.387801058782434 -0.6457656127808714 0.3025946017645414
Ar -0.8517402279162823 0.2785141601874745 0.3630145690696071
Ar 0.5171142425149813 1.052376357771481 -0.3080499764371108
Ar 0.2147087651907356 0.1480420924919699 0.2452509654351555
Ar -1.484985763533716 0.1257228062389566 -0.4979308363302631
Ar 1.720642042327296 -0.3582827695314246 -0.5278955654929595
Ar -0.4181156376655956 -0.5977570943518657 0.848644925384258
38
algorithm=ssw size=38 seed=1 index=3 energy=-163.7937365523273 entry_id=3 visits=3
Ar 0.5574377583523275 0.4088462891248527 -0.703981492618813
Ar 1.022151054434728 -0.586688649152929 0.007879090701556291
Ar 0.1328876256143868 -0.7038124937412338 -0.7971937674485498
Ar -0.05287256172315409 0.418430309775313 0.978065874487008
Ar -0.5906928488039412 0.2768694777513673 -0.7124043829393371
Ar -0.8860623199507718 -1.526714618698559 0.5095179683138841
Ar -1.929489137210452 -0.2872412882657793 1.578135913729193
Ar -0.3474862352289811 -1.18152724803879 2.260472659211178
Ar 0.564575142580673 -0.4785302777007118 1.003390079527186
Ar -1.1865699015376 -1.145401803313376 1.522948091661661
Ar -0.0515063845419832 -1.479372953500941 1.253729711191195
Ar 0.8292915384011296 0.4925407846686213 1.578232526631968
Ar -0.7780812087124335 1.222230924165603 0.8722783121191066
Ar -0.2001263609517854 0.9697612411294211 1.869566736461292
Ar -0.391835378238496 -1.679011412276455 -0.5315810056447886
Ar -0.8220329753986213 -0.6886763938270486 -0.2103857654349084
Ar 0.4080852825545108 1.374722716748675 0.9231996509268419
Ar 0.0828121387911822 -1.115113691902338 0.2458604546897774
Ar -1.015748327189757 0.2918113878867821 1.439912128438331
Ar 0.8933902232091636 0.4148607293087441 0.4710698847729153
Ar -1.077623265090133 -0.3592775919506372 2.306547139094469
Ar -0.09659481232033902 0.9723960269984186 0.01938715431989131
Ar 0.7062875927230214 -1.027814310851547 1.918959352377443
Ar 0.960437758009719 -1.479802928531007 0.7457617135907074
Ar 1.5932543935072 0.3326004759190037 -0.3529373223675935
Ar -0.06261208580741376 -0.1844724570749088 1.873142701183647
Ar 1.498387556524868 1.193230365693072 0.9113601856590271
Ar -1.213778211619937 1.109512224606565 -0.191821599970243
Ar 0.1083565160756211 -2.171793777371033 0.3673095371842556
Ar -1.856571635140412 0.5079024460491329 0.7285815762353403
Ar 0.7630945052898511 -1.577022540085146 -0.4368169753287069
Ar -1.553715100103549 -0.5860657950215175 0.5985360548163793
Ar -0.8937786922271741 0.2570142101882975 0.3530399056474356
Ar 0.9595714615286193 1.307441847794494 -0.1140407114325749
Ar 0.05533995310776103 -0.09895118775653995 0.0753545465381923
Ar -1.671792329102335 0.05480683826794051 -0.34568305398293
Ar 1.175437013252682 -0.4589189531782833 -1.060093022902051
Ar -0.5190064395568048 -0.5546540774298246 0.9353063859473113
38
algorithm=ssw size=38 seed=1 index=4 energy=-163.901584878085 entry_id=4 visits=1
Ar 1.912262496018221 0.7140184066399258 0.1030783248366677
Ar 1.145005945736182 -0.4552769510104055 1.35410956377677
Ar 1.338555004154913 -0.2040258425055736 0.2188956237459381
Ar -0.6574887294382756 -0.05201442533479276 1.158378581713393
Ar 0.0001152383997029656 0.6032891286177837 -0.8412606444204982
Ar 0.09290670209465217 -1.393738879992825 -0.3331430391930201
Ar -2.057331850471936 -0.9610219016279471 0.2502652734629401
Ar -1.003535015946195 -0.8346663234510256 1.856525645915861
Ar 0.490086202686155 0.4271435925690569 1.734374691879076
Ar -1.124975709548338 -1.190423002432547 0.8433991643283358
Ar -0.1184804978625535 -1.681958436626182 0.7526716573217586
Ar -0.3285324159273303 -0.06334437161426408 2.218178071476796
Ar -2.265119447765111 0.158142566018764 0.2842731172624368
Ar -1.48366504794047 0.6246609088134638 0.9347250274610845
Ar 1.198613971306197 -1.121822202663888 -0.4014225850418061
Ar 0.4036188037359543 -0.2986533938622477 -0.3396451857755667
Ar -0.8016464592397163 1.383555908348693 0.6044867929948171
Ar 0.6597702598192156 -0.9683917064580561 0.5148418293890579
Ar -1.263315455649677 -0.227180516516861 0.2935766967260954
Ar 0.2456004359191568 1.094074426310317 0.8634222440316477
Ar -1.814193326941486 -0.4020636075265615 1.202863366174463
Ar -0.02638123940511055 1.460506605309791 -0.1579253901159925
Ar 0.06394783412146862 -0.7997040303972611 1.429288135218225
Ar 0.8787802134338589 -1.576782903831463 1.364200811355485
Ar 1.267038419520303 0.6137553454671835 0.9833587531558801
Ar -1.358825657041903 0.2394509421275535 1.971304223726393
Ar -0.5453909087110077 0.9121610241627238 1.602398781309277
Ar -1.364308783324454 0.7169271384061175 -0.2124464457193206
Ar 0.895653550564965 -1.980370785096875 0.2865634825236948
Ar -1.782809956191512 -0.3088142131910085 -0.6395685522011034
Ar 1.703295922061363 -1.162595626096481 0.6614409487285943
Ar -1.074652729847402 -1.187441015487757 -0.262535657056352
Ar -0.3899771822812529 0.4517246148021293 0.1885791232832868
Ar 0.7633077980871362 0.6984999557056935 -0.0257802447853289
Ar 0.3842869634892376 0.02279276779129167 0.7523247492166049
Ar -0.6692883728490656 -0.2354225435187056 -0.623060921423316
Ar 2.1271365734631 -0.1072331139020348 0.9495335631544447
Ar -0.3272422447272311 -0.6736436915384807 0.3503366569507655
38
algorithm=ssw size=38 seed=1 index=5 energy=-163.8774126312397 entry_id=5 visits=2
Ar 0.6224486486930378 0.6812031282218755 -0.3807788475418669
Ar 1.099431530948346 -0.2889499053580276 -0.4380364209829353
Ar -0.7070298195696717 -0.5027147611741133 -1.07891441422165
Ar 0.1725524632362789 0.391248014686458 1.129047095734683
Ar -0.4577043007656632 0.4272855868155226 -0.4980366488976238
Ar -1.072263652319102 -1.369977886678448 0.7356959878770207
Ar -2.119993854362353 -0.03528597798257921 1.605170431695619
Ar -0.2865936131673275 -1.412910115608899 1.545949375565266
Ar 1.021900790114721 -1.017854156604807 0.3425419052881599
Ar -1.295641703188699 -0.8394324820256739 1.708269119311516
Ar -0.3183532775384175 -2.19877396637775 0.7045190353887693
Ar 0.6431374878596667 0.03606297359834261 2.110175157101663
Ar -0.7620595700194259 1.229889050331281 1.171291273086336
Ar -0.21401791530859 0.7539318867504868 2.067904257244837
Ar -0.6240894555829274 -1.667762444601999 -0.2697223615784243
Ar -0.7809845190858328 -0.5916126267714789 -0.01213338015065223
Ar 0.3071243269387978 1.45394066284803 1.346610224125222
Ar -0.0199275195611367 -1.187234563966395 0.4863439694645193
Ar -1.068873558712531 0.2626258947734124 1.584523407171971
Ar 1.131589971044045 0.05526187930947424 0.6588715297179308
Ar -0.3417270827052887 -0.4048154815875613 2.109578859298049
Ar -0.05540250772074033 1.144926329783346 0.3233562847524625
Ar 0.6670929002069412 -1.78097419324199 1.070965572848439
Ar 1.190695010388826 -1.36236532961049 -0.7036923077965034
Ar 1.705234409697257 0.5851653894866937 -0.1264871802871396
Ar 0.5331392433044769 -0.6599117929205299 1.27036457266632
Ar 1.167908644920375 0.7666138273747228 1.523149873237692
Ar -1.11918541658862 1.243201387487858 0.02498305004756426
Ar 0.4845563559389759 -1.946885841785313 -0.067731632047106
Ar -1.736018447971945 0.7223281020384937 0.8158702109239292
Ar 0.1812144506145575 -0.9479919087250258 -0.5421718569469409
Ar -1.549057199215363 -0.3661484946658181 0.7327605399416612
Ar -0.752328603998616 0.3668723330214363 0.5268711921059414
Ar 1.007622759278004 1.151500435939023 0.5281239270728103
Ar 0.184511039697936 -0.1500014485169197 0.1978587618741156
Ar -1.520947865326542 0.212622555518184 -0.2252507911574261
Ar 0.2992873269375362 -0.04208612474029416 -1.147684570669397
Ar -0.5044261736100217 -0.4768760886322294 1.060451034122009
38
algorithm=ssw size=38 seed=1 index=6 energy=-163.4407195663664 entry_id=6 visits=1
Ar 0.6858831717574343 0.06737845264335825 -1.384272131546467
Ar 0.8435609022118229 -1.214684330961868 -0.00122171200641758
Ar 0.1736535539778558 -0.5848505114135848 -0.6963675382199712
Ar 0.188258807526006 -0.05782400701416409 1.46092326940455
Ar -0.4564193075941468 0.1826436558142177 -1.164543531931383
Ar -1.306096545079398 -0.993583575851368 0.2540830537344895
Ar -1.863781425722151 0.1814941482184378 1.625375963702482
Ar -0.3548551916956514 -0.9568791228211158 1.8396632606296
Ar 1.186856267956543 -0.2496738777087945 1.103338833446159
Ar -1.42922175817609 -0.8221877816644049 1.390783190511072
Ar -0.6787385772598178 -1.582732931268112 0.9814487559614821
Ar 0.7684488586667603 -0.8165656519926268 2.002369162956777
Ar -0.2831975984054287 1.426526705769825 1.222975790876727
Ar 0.008181599807528495 0.8268070964945153 2.105683734522131
Ar -0.8329002109235595 -1.025451751869841 -0.7807082925990267
Ar -0.6511213757968262 -0.1334547599390727 -0.1354853408032149
Ar 0.6685584786236126 0.8688197803061384 1.215692263400428
Ar -0.2327403151693743 -1.109547246909047 0.1209624869775587
Ar -0.8055360974253092 0.4170136952969307 1.487097359203947
Ar 1.133476542278881 0.5484029501463591 0.3033433497683874
Ar -1.064875941491958 -0.2575297101841127 2.292397857160063
Ar 0.3675732706984522 1.366183182988283 0.2518182118043375
Ar 0.370004120160839 -1.115326013015387 1.027112283881062
Ar 0.1913840402229944 -2.051847763034793 0.3982668999970675
Ar 1.183290673223884 -0.2504212214754583 -0.4327503073172353
Ar 0.0259028822615918 -0.1819512274694985 2.538273982904421
Ar 0.9925029596843732 0.2730423660066329 2.108510058981881
Ar -0.589106777587735 1.906926758430661 0.263126152905845
Ar -0.835333936778564 -1.963112408168584 -0.1029831120301753
Ar -1.189892807248819 1.087368624722613 0.6911174086137811
Ar 0.1106557383742196 -1.700454544686991 -0.7101790608766345
Ar -1.454725568103188 0.04309063551034968 0.6080048259072066
Ar -0.2236466920876668 0.540825681083167 0.6009977585884443
Ar 0.2970739344952266 0.4758915485435991 -0.412532499135845
Ar 0.4002770379860726 -0.2738967198925274 0.3544914142342125
Ar -0.6807439188303825 0.9543746686137019 -0.3044730206078761
Ar 1.012790281586862 -1.115232928450175 -1.117326237679808
Ar -0.5625777726230836 -0.4754680183902611 0.8855916900686427
38
algorithm=ssw size=38 seed=1 index=7 energy=-164.5487609646886 entry_id=7 visits=2
Ar 0.1420303272467311 0.5976427833656757 -0.4320373009111463
Ar 1.61308529267694 -0.2768367857878949 -0.006756281493055328
Ar -0.3948291145830246 -0.3394670122020519 -0.7847755369435908
Ar -0.08786579825883811 0.6555428522040707 0.6623182806078542
Ar -0.8533074577461593 0.6897528508711216 -0.9554165045347391
Ar -0.6969552778052499 -1.700069604730723 0.6503773510942128
Ar -2.026902687095715 -0.9581797881331234 0.04573953976801298
Ar -0.6245376763710621 -1.184185320311654 1.635673285174456
Ar 1.19015972142225 -0.5608111432454361 1.001370384607403
Ar -1.498948390299902 -0.9609070652650954 1.043311962442115
Ar 0.07970485027363851 -1.995461210217062 1.465585661874466
Ar 0.4422060352956573 0.4438061345336722 2.309067994580045
Ar -1.140538600062985 0.8728370414367725 0.8529791030978014
Ar -0.4376945734124127 0.725000362522179 1.674631098888672
Ar 0.3483028113339652 -2.040789328998692 0.3889079626628175
Ar -0.06953137155535985 -1.269623674863273 -0.270235174513983
Ar -0.2991083281398823 1.643917656389581 1.011228722242182
Ar 0.1463902422139456 -1.064148089863979 0.8780074968942112
Ar -1.401531552262519 0.08223449894897841 1.63451188084794
Ar 0.9426009577994791 0.3998748260611548 0.5254282868071655
Ar -0.4103719352995051 -0.2578588352299813 2.119164486668945
Ar -0.5978368577755054 1.330410582221734 -0.03460168478478239
Ar 0.4739011744632885 -0.9819051772692977 1.896054446166703
Ar 1.933770176865848 -1.226405250452118 0.5251861952781858
Ar 1.227350504764817 0.6718993289981583 -0.4877039733301533
Ar 0.3363604518778727 -0.04268627562506248 1.343837168193986
Ar 0.6105138182172734 1.056637627148451 1.372827626495162
Ar -1.643232632457304 0.8788849216136539 -0.1588328941963143
Ar 1.065963341037127 -1.629165106898395 1.12613364634975
Ar -1.689913810505501 -0.02174111052572441 0.5316571037149899
Ar 0.9223357900922797 -1.117000257772341 0.1033027266535142
Ar -0.9473267971694896 -0.7943585166613677 0.09894605385557269
Ar -0.7892601043162868 0.2507760634065723 0.02180471133697626
Ar 0.5462347963761013 1.402765606963789 0.2298065904787638
Ar 0.1491070753478426 -0.2834161633909296 0.1977125469535254
Ar -1.543674792980121 -0.170264259567454 -0.6105743785421354
Ar 0.7336197815349011 -0.335510593528965 -0.6949853286810939
Ar -0.6374480872398705 -0.257078719736195 0.9809529795813338
38
algorithm=ssw size=38 seed=1 index=8 energy=-165.7897676317388 entry_id=8 visits=4
Ar 1.186735641859138 0.1285679728004487 -0.002861547823402373
Ar 0.6759847474798715 -1.583952372380969 0.2553801346121313
Ar 0.4418166890535821 0.1877873910840867 -0.796037831778418
Ar 0.7393786580222872 -0.02325869584494354 1.01245427657864
Ar 0.8627881216667942 1.146748348644602 -0.342412004315459
Ar -1.589329110935918 0.07942760298220269 0.05529516867002857
Ar -1.074057465791547 1.119766649519965 0.01790971189495302
Ar -1.508876329895853 -0.23413452474414 1.153906690546966
Ar -0.2500884531298944 -1.462461678472929 0.808790995358212
Ar -1.711063078124582 0.8103762120461776 0.9051356104359287
Ar -1.907171044876756 -0.9387770538790898 0.3851617327713348
Ar -0.2398222641262764 -1.292134765239752 1.908741690104547
Ar 0.07643475825083466 0.747899490102666 1.320666539731352
Ar 0.4047705070079363 -0.22759138343462 2.043555218505615
Ar -1.235677464550777 -0.8408865499747559 -0.5899965306903103
Ar -0.2001699724452096 -0.6371219768863585 -1.138812186760349
Ar 1.121091680195169 0.6127164229192293 1.790083901933653
Ar -0.8568083625735248 -0.6771026374391872 0.3939175695307486
Ar -0.9057671483886089 0.4864962514050598 1.739111054924635
Ar 0.6223798010326986 -1.060434827374544 1.277510172375462
Ar -1.012130242631346 -0.5419465504922151 2.101100217737897
Ar 1.001994492742987 1.016485721424689 0.7485903388739384
Ar -1.202594838429619 -1.266610590413889 1.264726840028469
Ar -0.1815987920051292 -2.324057058675989 0.1349259811364496
Ar 1.374501158020042 -0.7797516608074456 0.5419937117011865
Ar -0.3023585833472792 -0.4072861991337519 1.26413511717542
Ar 1.45724091255822 -0.4766894853059404 1.693529156157015
Ar 0.02766906865110926 1.522287924131097 0.3826593374637622
Ar -1.145015065610894 -1.718411077431742 0.2054340371616935
Ar -0.7973228589121586 1.390033490654189 1.087797634666209
Ar -0.2575944638533241 -1.319784364130172 -0.3083950403834129
Ar -0.5720456105337277 0.03992671132617612 -0.3654235562286198
Ar 0.2037853094996551 0.4900100967999199 0.2296138670616178
Ar 1.790806586332594 0.24138741107381 0.9198791389077512
Ar 0.2091243072785318 -0.5736891800101568 0.2956174667307376
Ar -0.2017865744597072 1.063782666755483 -0.6272090749585174
Ar 0.8008048401647413 -0.8270293472619855 -0.5541716215547308
Ar -0.7332082516895007 0.36352546207425 0.6783023171024329
38
algorithm=ssw size=38 seed=1 index=9 energy=-164.8703094540963 entry_id=9 visits=2
Ar 1.015115813530076 0.4798701069160183 0.7214879979304639
Ar 1.243489822878954 -1.441861337961296 -0.3034545596369514
Ar 0.7377281720888433 0.4134094062508617 -0.3335031852964128
Ar 0.1574229595132575 0.2149919572770452 1.290049071180756
Ar 0.7621883946085131 1.43894527898027 0.2438820631990545
Ar -1.719871142867251 -0.6264024915778659 0.5726277700146679
Ar -0.9333390101825366 0.9490292140847908 -0.1784329382237267
Ar -1.023841516166805 -1.028769500908347 1.359638381789827
Ar 0.2424341205268696 -1.336554367093756 0.07952808802527457
Ar -1.619516056172321 0.5183718345767607 0.5577681797653971
Ar -1.436235080653751 -1.768769654223666 0.5966932543608688
Ar -0.1155309619857903 -1.21007897398626 1.987778237558007
Ar -0.09143743140648859 0.7838753075411915 2.166527548851198
Ar 0.4151011449539915 -0.2452283183329427 2.261040000829603
Ar -1.513276030898089 -1.187525930097654 -0.3987690345349874
Ar -0.2567745324915686 0.244584767967827 -0.8166640695127736
Ar 0.9980041178059291 0.618244098068357 1.838735860977367
Ar -0.7414610427560905 -1.01289898492512 0.3228654319183953
Ar -1.613505652812386 -0.04082262758359633 1.511795460693211
Ar 0.905677188129728 -1.468132367725451 0.9324022036334245
Ar -0.6149774051287841 -0.1840523342915366 1.918257928940277
Ar 0.3139637562934654 1.288754750575002 1.244516168902537
Ar -0.3155095590284296 -1.811038471772404 0.9285994819562595
Ar 0.2863593276895298 -1.690269908670306 -0.9382916509165237
Ar 0.9961109590105236 -0.5397462836726692 0.3011642427065099
Ar 0.05932336104819341 -0.7923987325563244 1.022408851588224
Ar 1.044761344622318 -0.4317387368724131 1.385415414087486
Ar -0.3566282999625948 1.723895137191179 0.4434816169033594
Ar -0.6358743933116969 -1.919790903830422 -0.2437583184388444
Ar -0.7385231181466382 0.9130703181919981 1.22466471353268
Ar -0.466993283570967 -0.8965110750677395 -0.7233017039760383
Ar -1.102448581464639 -0.136363447827018 -0.2151378052791956
Ar -0.04755843931639472 0.7076069220785416 0.3761025134711418
Ar 1.410097584994841 1.412335330635654 1.161402731148461
Ar -0.01385326062942637 -0.2854972493316983 0.07663208021615259
Ar 0.04189107041321989 1.28351610116337 -0.5623277802749653
Ar 0.6024133888798424 -0.6234983202048491 -0.7457316564911056
Ar -0.7621064245310812 -0.07843666657609173 0.8245136437861083
38
algorithm=ssw size=38 seed=1 index=10 energy=-163.6907033743774 entry_id=10 visits=1
Ar 1.305341106982303 0.02126450369490496 0.1615805279090165
Ar 0.4315974682171214 -1.467486494210569 0.5748342582875082
Ar 0.663714072474622 -0.4274468126315856 -0.8111161516080977
Ar 0.17404390438249 0.3334252766624314 1.089059218748574
Ar 0.6825176226419526 0.6214717705211891 -0.5796189021473707
Ar -1.232472757805766 0.440426723185957 -0.1402586287447289
Ar -0.8395817153368184 1.456691822784901 0.0119980031315714
Ar -1.688070984480205 0.07193138737713665 0.8863910718235868
Ar -0.4590552327968485 -1.760576871105352 1.168827217249346
Ar -1.812402830318089 1.150511729341908 0.494093783626154
Ar -1.498141408910065 -0.6683408439331805 0.05699451688733172
Ar -0.4944242503990409 -1.055037073533192 2.077445662175847
Ar -0.04826405620918331 1.480722519484151 0.8156411889903001
Ar -0.3276580145072585 1.013444222966506 1.820760857017607
Ar 0.2156822997702355 -1.367629828747674 -0.5020624807788998
Ar 0.8333558136437855 -2.210452874323146 -0.08545461804562213
Ar 0.7176891933394253 1.209411953540894 1.555104088577274
Ar -0.5292500406564552 -1.135316565157785 0.2262428965119774
Ar -0.8770538090845672 0.804803866941289 0.9161924713889733
Ar 0.5090939435714228 -1.476654303829912 1.682690487951246
Ar -0.7268056513741697 -0.02022047228371922 1.649623722138011
Ar 0.8470572825455887 0.9674714556074552 0.463584020229244
Ar -1.174856060643373 -0.9165924479695056 1.14457892756936
Ar 0.4113139708124282 -2.449502489816104 1.008881644809516
Ar 1.018703745067087 -0.691440059530684 1.021664985421491
Ar -0.07204215780252549 -0.739014473342087 1.156564235613696
Ar 0.4799784567635406 -0.2757464422214755 1.945767705220707
Ar 0.2239774489101633 1.577134115587371 -0.2676221859338734
Ar -1.343179154654272 -1.792783873067483 0.470037828816443
Ar -1.076331874328764 1.860573525862464 1.035651618786773
Ar -0.2806008912884079 -2.192653145855026 0.1470730486421296
Ar -0.4513262313669962 -0.2757727411177924 -0.5187813172794966
Ar -0.1348410208097146 0.6179119143602083 0.1151110043079443
Ar 1.267385378381997 0.318897257610923 1.263402814173544
Ar 0.3227663991522078 -0.398478717531996 0.2211043497028093
Ar -0.4349354644879515 0.8250628408547179 -0.8805222463491694
Ar 1.19767517866168 -1.060816722105238 -0.05997798024553964
Ar -0.6877783745534924 -0.1550797876619404 0.5551185908103349
38
algorithm=ssw size=38 seed=1 index=11 energy=-166.276411622471 entry_id=11 visits=2
Ar 1.053891397752094 0.6811048732792628 0.2890289777691898
Ar 1.015619930490863 -1.562641492673437 0.4543752590321983
Ar 1.147337142810708 -0.1597760664007215 -0.7170397963081687
Ar 0.5287570781969355 0.05004382015781125 0.9944966116695613
Ar 0.4605205704432095 1.58593176319692 -0.02543459800882945
Ar -1.582812693222069 -0.2562001078412265 0.4821582033832249
Ar -0.3641802279976639 0.8716568417949438 -0.4338836471507153
Ar -1.109962238400567 -0.7970048022668333 1.327841170548392
Ar 0.2395393102241593 -1.675798230439698 1.285108630658376
Ar -1.115438424439169 0.7367280999216111 0.3631547031111748
Ar -1.767616893880454 -1.357611815529663 0.6100787672520529
Ar -0.5950268890637448 -1.464927895438256 2.027918619408356
Ar -0.1999794089692496 0.485496918732736 1.665130684357923
Ar 0.774091952184189 0.04269868621915148 2.033800942257431
Ar -1.584316327663727 -0.9212456278255126 -0.4248812225500578
Ar 0.04041933133127405 -0.1737653025071177 -1.064221105223081
Ar 0.7864462200537167 1.011701241659157 1.369559315494973
Ar -0.7882775792587315 -0.9954395850168599 0.3092403341600137
Ar -1.28741757483986 0.3185917600194505 1.404433008304276
Ar 1.023726649071239 -0.8533664447248235 1.352314078773071
Ar -0.8271718438130862 -0.2552170722761323 2.246642364267537
Ar -0.03163510647281659 0.8686468085889634 0.6107901805888613
Ar -0.810050473068438 -1.830671333114575 0.9818360124645865
Ar -0.05180494620191135 -1.804103434463437 0.1363431168697688
Ar 1.206903480655469 -0.4605017087207878 0.3254163856778835
Ar -0.03691055600807446 -0.6293515850459644 1.610027336922095
Ar 1.565943691879099 0.1707342923245607 1.199593609437321
Ar -0.6204305442007069 1.726755637358676 0.2326883076153391
Ar -1.127826492068036 -1.917032297409482 -0.1357645164296215
Ar -0.7993313362468697 1.313167879199033 1.258212503259498
Ar -0.5105547995896134 -1.125032981389827 -0.7188785215415844
Ar -0.8062411984907233 -0.116253112278919 -0.315296818961419
Ar 0.2486225940059819 0.02057424142708725 -0.04081497166272578
Ar 0.1554220666599563 1.859051355945546 1.028694509434102
Ar 0.2112393755471569 -0.8628389029180608 0.5883609036980816
Ar 0.6547983857198314 0.7899406511260908 -0.7625582681059032
Ar 0.5316430302353868 -1.006187691049191 -0.4216931405296581
Ar -0.5151153498628489 -0.07374353521225821 0.7638283054432725
38
algorithm=ssw size=38 seed=1 index=12 energy=-165.6968910585132 entry_id=12 visits=2
Ar 0.8973874935074352 0.1526127981625406 -0.6022863126738677
Ar 0.8909613360929428 0.005424560761567062 1.579669502786906
Ar 1.183662861791637 -0.852089272366959 -0.1880417720327183
Ar -0.8550737955161677 0.159867657805052 0.9905732398635472
Ar -0.3738819685001599 1.225377470045906 -0.5311483984086981
Ar -0.494128868383721 -1.788027386157566 0.225914680894484
Ar -0.5477407793399831 -1.372252640836404 -0.7870862839833688
Ar -0.9316476885682942 -0.5526961444745337 1.81076745544217
Ar 1.180820364411167 0.8121381629375617 0.8976569454821054
Ar -1.434116109430237 -1.095514167230244 0.9781801149676385
Ar -0.4324717014956683 -1.438363416144449 1.26628075206078
Ar 0.6116523511792979 1.066159288421654 1.85148233742394
Ar -1.675348521141789 0.8238363182627084 0.8271267751544299
Ar -1.264160351323849 0.5636896699233086 1.909782704861343
Ar 0.4560981101792119 -1.713676296816296 -0.3802910874274356
Ar 0.1346196604962251 -0.6227587256485393 -0.4135038851149032
Ar -0.4797254053735399 1.277446301666651 1.613373377863724
Ar 0.3719587910007108 -1.140848359864542 0.5179245602541669
Ar -1.874326629051206 -0.1535677611133256 1.352101936515484
Ar 0.3393674906808803 1.639512621372162 0.9075806204179251
Ar -1.423967938016954 -1.251007835054779 -0.1219710091150431
Ar -0.6496764269391589 1.188903800264649 0.5354922446737549
Ar -0.004665716841336776 -0.456152545409899 1.240143987293906