55
algorithm=ssw size=55 seed=1 index=0 energy=-252.5364489867771 entry_id=0 visits=3
Ar 0.04429350516341737 0.8119598189011141 -1.115454189828514
Ar 2.073725645509764 -1.223982522706156 0.2724558987930959
Ar 0.8085979823652691 0.1808258169897287 -0.574299488986904
Ar -2.35521115099905 -0.2130693905791419 0.1997695382806768
Ar -0.7103202765829507 1.242923073817744 0.5179226349621202
Ar 0.2141680924946403 -1.393386347738817 0.7229524557785918
Ar -0.5522888136980295 -0.6973071732871771 1.141860305122214
Ar -1.530645453416997 -0.3312095391847668 0.9091844929645641
Ar 1.775290220921986 0.7329073196985098 -0.3517186057320866
Ar -1.425291075951084 -1.302937960718695 1.430405333599101
Ar 0.3343442753324629 -0.2547862597237711 0.5742153593123004
Ar 1.942275506587722 0.4243278525930737 1.812017589729929
Ar -1.950935370265847 0.2934498258194867 -0.7408482471459642
Ar -1.066777764011419 0.5914858380717544 1.359322923778335
Ar 0.4098527802916251 -0.7619719401868935 1.604088389532706
Ar 1.081533633116865 0.04131618022416456 1.289922017077418
Ar -0.2289754983665419 0.06545288789841069 1.87603401711258
Ar 1.455026820718361 -0.7865012243534795 1.912607566768375
Ar -0.8374191203434658 -1.711709846478129 0.6085295305134082
Ar 0.4174274681412553 1.577896277678243 0.5158277765078999
Ar -0.3231416762308991 -1.633023704895161 1.642876452594022
Ar 0.8379035197586908 1.304700116538927 -0.4766569823718211
Ar -1.249810895187194 -0.3368293873271202 1.957426258788912
Ar 1.073176701743949 -1.777210776708052 0.1245556500932586
Ar 1.936479460286594 -1.567605271731487 1.299407029964746
Ar -2.186884833151101 0.435734531335926 1.28245709998236
Ar 1.541886712358152 1.546769730098014 0.393336225893849
Ar -0.9274594318705029 0.6807750919349003 -0.4938423851138439
Ar 0.8660391551829747 -1.749413070763964 1.525555801728384
Ar -1.322063567252018 -0.3413838192688036 -0.1573717424216389
Ar 0.5833958098060477 -0.8757741956542772 -0.2391891881493867
Ar -2.096359832090049 -0.8446074851470747 -0.7077791286476363
Ar -1.629665237398803 0.6181873526445245 0.3402886043936514
Ar 0.986256886001005 0.6164716463635486 0.3982036189334299
Ar 1.994246403297661 0.563205543798614 0.7211657731247024
Ar -0.2227939077081715 -0.1362240517671045 -0.6342800674477389
Ar 0.709805525893804 -1.722737180141912 -0.9584540117453979
Ar -1.797120339116022 -1.207383267208434 0.3429561921049435
Ar -0.07727561431431887 -1.856031449454305 -0.2060997546380356
Ar 0.04873326521825574 0.7038327891567584 -0.03152911017274163
Ar 1.107543257514377 1.131312514110594 1.342017446539822
Ar -0.6527731115289341 0.1418086240632255 0.4844551956501751
Ar -1.12116743437612 -0.4679733237416538 -1.194088921551803
Ar -0.4451156807396007 -0.8639250612931048 0.08576783852129155
Ar 2.161159880562745 1.448000813583924 1.345818433639477
Ar 2.093161064418349 -0.4517183560511398 1.081090250116208
Ar 1.732052000471422 -0.1107726638587009 -1.059850885033576
Ar -0.2214373400747151 -1.134805782343788 -1.015120565761197
Ar -0.2565888184569388 1.651613987339241 -0.4241069197231905
Ar 1.551632265927634 -1.103121733511892 -0.6659751631003068
Ar 0.7266731500450663 -0.6298952514379115 -1.290771565473724
Ar 1.162016558196285 -0.9398173506933694 0.822341249228015
Ar -1.146841816738208 -1.417204670388515 -0.5097302081054869
Ar 1.537032085853336 -0.2681471336963431 0.08593346387101669
Ar 0.1072999457050957 0.6886196533612055 1.071825762898467
55
algorithm=ssw size=55 seed=1 index=1 energy=-255.3255866171738 entry_id=1 visits=2
Ar -1.005733241328023 0.5728785208330138 -0.8014502113439019
Ar 1.571266706713316 -0.8590368986181165 -0.6714516156308756
Ar 0.05302574044289561 0.2300548070986549 -0.8277180553921126
Ar -1.874959729177644 -1.06548952415557 1.338221265879664
Ar -0.9644287184123554 0.9651567636021585 0.957935659206083
Ar 0.7822007393853048 -1.191913518417084 0.9749084439431804
Ar 0.1861753262577951 -0.3938481738946058 1.382358851338406
Ar -0.8091634921834144 -0.8159125568814332 1.503339199383117
Ar 0.7752508808025699 0.9157098253222903 -1.222515972289366
Ar 0.05628347244964298 -1.412975473481225 1.771734213987633
Ar 0.4326896971752685 0.02544719904610816 0.3963576552210729
Ar 2.455838916704525 0.9478396776657589 0.2118213426468968
Ar -2.261286343651987 -0.4294232269495419 0.4295658167619492
Ar -0.6470962474419778 0.2684366976515041 1.8302518335457
Ar 1.152740444514946 0.06210381719318855 1.283605466209421
Ar 1.461699546576969 0.5687688619096388 0.389686988388776
Ar 0.4663952605012243 0.3219037343526049 2.135127595539708
Ar 2.249822595369903 -0.02715867867286076 0.8301682661684928
Ar 0.06887960456002791 -2.07407151147138 0.9191612188597301
Ar -0.07995879372968823 1.60117413155888 0.4834257541941899
Ar 0.941602715354436 -0.7528573373105517 2.041165340033148
Ar -0.1668671633838953 1.355708891144199 -0.7392495810092737
Ar -0.1975038713579693 -0.5493061827606247 2.403952394809976
Ar 1.249984446330535 -1.585612977531233 0.08386017313587227
Ar 2.268993187624865 -1.032770862116312 0.2357402398517244
Ar -1.429906844791673 -0.3995466364429545 2.273204065510888
Ar 0.8747552304924643 1.873576185100823 -0.6826463519376059
Ar -1.409195952465752 0.2853821730318585 0.1682399257054285
Ar 1.779106604230347 -0.9027160614622542 1.291219674852486
Ar -1.255788226837259 -0.7595437926694263 0.5122054266217406
Ar 0.5086996491365805 -0.8164479906226847 -0.2407710660621564
Ar -1.928789496160817 -1.541183731232092 0.2621796240904314
Ar -1.573207731632769 0.01178766910048696 1.240604221338772
Ar 0.6390736268117707 1.000516807194846 -0.09738402689066099
Ar 1.695116642073452 0.965551994636352 -0.6303085727830156
Ar -0.5293266795333076 -0.4053533089166743 -0.2187885810049434
Ar -0.1895373472731729 -1.199802695930661 -0.9711998133290564
Ar -1.005420349544256 -1.728518792922725 0.9293915463529042
Ar 0.1598833305761809 -1.827724801683583 -0.1240080613739171
Ar -0.3640558231893862 0.6573751406763131 0.06499122607181154
Ar 0.9360984598240634 1.317948812477432 0.9744119018799879
Ar -0.5860853563021805 -0.03367579570006934 0.79873465841529
Ar -1.568113421942044 -0.5969122568232221 -0.5106500431367774
Ar -0.2015124968035022 -1.047052566477688 0.5870447464153117
Ar 1.564280709208836 1.671258778271215 0.171445678099103
Ar 2.140939713365828 -0.01094465493166481 -0.268236834241999
Ar 0.6587192511178228 -0.5571080034760595 -1.300608087553447
Ar -0.8931208596826644 -1.469965229714844 -0.1906919107617168
Ar -1.104900970729674 1.416166552085399 -0.05995652652991788
Ar 0.8365534962947536 -1.613998451973588 -0.9641619799360189
Ar -0.7795005605340365 -0.3617091039397146 -1.299469979484698
Ar 1.35492304252681 -0.5070398569044796 0.3606373018624272
Ar -0.6814430200853911 -2.479918374295363 0.1913447043804411
Ar 1.068415204944642 0.08967215837765721 -0.5130441518410614
Ar 0.09615401582216035 0.7062299240307229 1.153696048579751
55
algorithm=ssw size=55 seed=1 index=2 energy=-254.8441935411742 entry_id=2 visits=2
Ar -1.349174541480185 0.9192409660048982 -0.4081802926720817
Ar 1.957162106040211 -0.4991555060872546 -0.2040955658089802
Ar -0.286119867107079 0.7954259695895958 -0.5318178598512983
Ar -1.442754029254594 -1.646653610370362 0.7059756257199
Ar -1.333131991715916 0.4720541228672071 1.370893089639212
Ar 1.082120569269436 -1.117678050673599 1.150809583230571
Ar 0.1847172928736905 -0.5906791144135941 1.567474930865949
Ar -0.6744342393692101 -1.207874617494952 1.337963948571087
Ar 2.062681494259176 -0.3599501560038822 -1.293094583339535
Ar 0.2717407099451025 -1.698954359946866 1.566710021839312
Ar 0.3678615925223911 0.2545319144864511 0.9304636327251171
Ar 1.341459915873489 1.472004906739169 -0.6893383281377952
Ar -1.924143130565656 -0.8565511007066411 0.0766663949312872
Ar -0.7812734704144296 -0.266245880816496 2.014766106130852
Ar 0.7809836984167874 0.9160442797400578 1.68527692384967
Ar 0.6852453860284812 0.6720676193876208 -0.01876852918564373
Ar 0.3218977083025205 0.09083453834134703 2.368705951012526
Ar 1.411993982749957 0.5409148932081047 0.8296405018186662
Ar 0.6093968268004203 -2.00684591305653 0.5417776428621669
Ar -0.761014950788656 1.541139396059327 1.214165587676675
Ar 0.86419073246102 -1.01599015734761 2.273490143364307
Ar -0.6924804614360129 1.697417588488282 0.09300161651208279
Ar -0.2658540910120573 -1.162461917577582 2.382575407216907
Ar 1.351803246402148 -1.350351256082578 0.1085026625878454
Ar 1.925831547717585 -0.4520865784119225 0.8938724773395967
Ar -1.405688792033841 -1.17221957650698 2.133406992064824
Ar 0.6006059420637282 0.8005208326655453 -1.134076265408426
Ar -1.453822845097337 0.09801682437112881 0.340297341035752
Ar 1.155641281704234 -0.1324344358431297 1.638493535029201
Ar -0.8443500386316812 -0.8849974149004427 0.1771957874368593
Ar 0.4499085641690665 -0.9482177442857407 -0.4044945280881749
Ar -1.320656248880904 -1.684864530541724 -0.3995937033884631
Ar -1.579564229064941 -0.626350870887455 1.154675412423875
Ar 0.2478251303063292 1.331759884227609 0.7855053604201914
Ar 1.651049906117123 0.6283258539309312 -1.317253588262907
Ar -0.0644518716917144 -0.1215682589944689 0.01417317011535404
Ar 0.3916451593276576 -1.164746049776239 -1.464883640014391
Ar -0.4515257741063305 -2.143149173823486 0.851612125502979
Ar 0.7385270053114942 -1.967033272696 -0.6099173692036293
Ar -0.5853503257160289 0.7193445011301262 0.5025034507834487
Ar 1.256128209284318 1.523090954731706 0.3955514823988336
Ar -0.5950246954986562 -0.2173650726115422 0.9579736260539637
Ar -0.9624885389455767 -0.09266347768339801 -0.6034197230889334
Ar 0.1310392928452195 -1.036336615622688 0.6127739753826236
Ar 0.3431304795511788 1.66538488435957 -0.2827013577968501
Ar 1.7707526549027 0.5886720652453068 -0.1948137198562875
Ar 0.9990798119234245 -0.2478338269283368 -1.723294828451681
Ar -0.5436786390892945 -1.049759102762607 -0.8859220481775205
Ar -1.600514995765559 1.200125263974959 0.601592070128062
Ar 1.36652362235561 -1.113217968093639 -0.9678621549732148
Ar 0.05657823083575651 -0.1492318964463847 -1.077240544153116
Ar 0.986390735561033 -0.3617426677770602 0.3515561698951003
Ar -0.2396314210657683 -1.763262915552289 -0.1340630215261766
Ar 1.070418488520653 -0.0898733061551979 -0.6783925587848807
Ar -0.2985366166954336 0.6525392313115117 1.640608510354145
55
algorithm=ssw size=55 seed=1 index=3 energy=-258.9723223898958 entry_id=3 visits=3
Ar -1.277895678200662 1.047600800454834 -0.1799992726886147
Ar 1.639629892822642 -0.9021481632195555 -0.2818628570149458
Ar -0.2099890656500271 0.880158491330069 -0.3342776061246873
Ar -1.570942952158775 -1.440842782081049 0.3993219929742077
Ar -1.331774003126654 0.1951300089765735 1.442154520031961
Ar 1.200014687495444 -1.151845812782896 1.21008285526522
Ar 0.3179418338184639 -0.6961667111058314 1.651309405528518
Ar -0.5096065265555312 -1.307571639954653 1.974892003232599
Ar 1.572442964483646 -0.6304018735331577 -1.353052748788971
Ar 0.5710082455728941 -1.63141665222794 2.1360686646564
Ar 0.2843922608742451 0.1599204844236108 0.9892567462102776
Ar 1.573154028510731 1.222277258243265 -0.3087043798764868
Ar -1.576430787593616 -0.8440811170114351 -0.536564891591241
Ar -0.583382198608173 -0.2208313387127495 2.118475439058718
Ar 0.7980445053046917 0.9609483690129361 1.483663887643305
Ar 0.7698306146774784 0.6603735650476644 0.1219062592618631
Ar 0.436564586266698 0.2118905981053804 2.200664230991274
Ar 1.627722753938576 0.6332994562620491 0.7837613304440019
Ar 0.3980636201748948 -1.956971835491533 1.109955209156709
Ar -1.049331259407105 1.368455360783921 0.9450810610761693
Ar 1.184018564660875 -0.7317057246956833 2.327581627837959
Ar -0.5640853106419099 1.85617016625666 0.05965662031732029
Ar 0.1495507268209314 -0.7703382373561255 2.73071916605595
Ar 1.036079231465174 -1.650655866266034 0.2286496462812136
Ar 2.026965690978289 -0.4784170219235752 0.7725762536090939
Ar -1.452963665981272 -0.9543524528105216 1.428260022214495
Ar 0.7073564686321842 0.9119764990913455 -0.9590460933769924
Ar -2.004162784347712 0.1894190626452553 -0.3473336061696535
Ar 1.224495734554365 -0.0832053131746083 1.467032344893145
Ar -0.6487102932769593 -0.9307782190041252 0.07029206809208915
Ar 0.4125706012971035 -1.015259648874958 -0.4014871599644655
Ar -0.9742569863080833 -1.786146993686621 -0.5131717200974392
Ar -1.478855005967752 -0.3432348318670636 0.4696447725573039
Ar 0.05067626338452833 1.217642105329698 0.7026336891705737
Ar 1.714802852427894 0.491573213491594 -1.17005000008983
Ar 0.03763343222465167 -0.1176552489503545 -0.004489274345253739
Ar 0.4791273742791138 -0.8398138682791232 -1.454996393960675
Ar -0.6359507539260465 -1.587750954554471 0.9418440888659705
Ar 0.02965598617426691 -1.81077682654298 -1.041492481691746
Ar -0.7106683211500354 0.437063098919386 0.5475349107119447
Ar 1.118970170425223 1.594231803796038 0.6540304743452
Ar -0.5682375772826818 -0.4880954844425184 1.065364569457583
Ar -0.9295931307838633 0.02792946093871919 -0.4454788899062887
Ar 0.2544916941175969 -1.002092247433643 0.6469837894027595
Ar 0.5070177446066516 1.699852987429195 -0.228750214333112
Ar 1.854236226631241 0.1568139440014567 -0.1478769402607815
Ar 0.850940501927553 0.1458081469205613 -1.752205118854614
Ar -0.5369998853856258 -0.8659727359104853 -0.9934477814422704
Ar -1.872916874488372 0.6763726954559622 0.6422317102319645
Ar 1.130592221276578 -1.609305684846173 -0.9476215615828619
Ar -0.03921459323920731 0.09556393672134644 -1.090901435361187
Ar 1.035992569277149 -0.3454929063751671 0.4074190231971733
Ar -0.04158576417563822 -1.891264288940202 0.06811122079013597
Ar 0.9292922559507595 -0.1106081822611006 -0.656721876702018
Ar -0.3770573677821493 0.7358392446609631 1.599799747409722
55
algorithm=ssw size=55 seed=1 index=4 energy=-260.094588702368 entry_id=4 visits=3
Ar -1.307950225638071 0.4447981934046533 -0.7053677897680749
Ar 1.897053666413566 0.136466500823516 0.775564876801191
Ar -0.3632225362784612 0.8757198350952358 -0.2490869175487683
Ar -0.1699541645508393 -1.897870409072445 -0.6563424917847679
Ar -1.671945125081689 -0.7273858400545561 0.347058040077817
Ar 1.404872158796878 -0.8122651367000138 1.156007944019771
Ar -0.02238705855816373 -1.438386771809885 1.485301049024321
Ar -0.9273926978509204 -1.972250554818003 1.070163950370696
Ar 2.207206870329348 0.7139033070378207 -0.115465794686837
Ar 0.09350799890781314 -2.491429561536447 1.269888167098335
Ar -0.2102767758307272 0.0008720315142772747 1.0401868335815
Ar 0.6538465576186424 1.90198732730322 0.8424875722288595
Ar -0.3118050746762362 -1.009895976705864 -1.302519446564734
Ar -1.552300817667845 -1.115742781412732 1.405374205588135
Ar -0.6944682035325807 0.5461613142811649 1.84128349957012
Ar 0.2501859207903936 0.9152726901978158 0.6629570516965293
Ar -0.6380690723151999 -0.5965172880757194 1.847608544849055
Ar 0.4064740804636848 0.6344165102428411 1.743441850195017
Ar 0.9176469487747931 -1.785101320078583 0.8895044585766374
Ar -1.785322492573865 0.4198349285254907 0.2985690011283886
Ar 0.9741057037358574 -1.461470768121221 1.943794832654631
Ar -1.327473482886392 1.368174900276265 -0.07469804094211811
Ar -0.8836549278225064 -1.645299771776275 2.127926946398693
Ar 1.775827343031305 -1.375390821562464 0.2793573432097372
Ar 1.430894485873935 0.1105764225795017 1.829640614332457
Ar -1.061629824480104 -1.602257529621519 -0.0005118242608361638
Ar 0.5529116179450518 1.512760593229779 -0.2043741073990838
Ar -1.122951637899414 -0.2182076457885068 -1.612587798995774
Ar 0.4671015375350912 -0.4943974516513546 1.766770141257932
Ar -0.2119600004145676 -0.9086387135067371 -0.2063762991706907
Ar 1.216694780182919 -0.4630504988502672 0.09653238062872697
Ar 0.6906278515959096 -1.520865191062095 -1.262594198991117
Ar -1.183401262057761 -0.72045984164613 -0.6480046499691947
Ar -0.8422657357359477 0.8508306895253562 0.7651574861203426
Ar 1.578582501650787 1.614931595189113 0.2505941594114841
Ar 0.2502028285012524 0.02547755942405706 0.04564517233933835
Ar 1.545197327940199 0.09622674279376575 -0.7853344121616961
Ar -0.07275748022059962 -1.80254034055894 0.4286800695344921
Ar 1.598347356333801 -1.027121269361924 -0.7750121603780508
Ar -0.820530146494137 -0.05632792354550456 0.1401574644639812
Ar -0.2293032147282315 1.493691044743622 1.446525871818162
Ar -0.682507793981058 -0.9327474005448477 0.7801009116677209
Ar -0.3462476588305329 -0.02074746141107122 -0.8657459632094031
Ar 0.3963776609664418 -0.8508330427188522 0.6933914156897935
Ar -0.3699909572779472 1.784632626481916 0.375996754234165
Ar 1.278334459491188 1.029258236186289 1.139011050187734
Ar 1.468806439037804 1.218049729260258 -0.7883816434615819
Ar 0.6168675057431091 -0.5222537271046628 -0.8242882556232043
Ar -2.157161507754314 -0.2320834321172046 -0.5246602690651541
Ar 2.27759031340011 -0.4195381067668823 -0.1091477874636864
Ar 0.5525459119332494 0.5980071754076569 -0.8373073098881937
Ar 0.8440002531386814 0.07466653181134839 0.9408485920491566
Ar 0.7571629721518882 -1.425756957805747 -0.1696262574789626
Ar 1.145829712186458 0.6336072865959373 0.08912355828312531
Ar -1.303207370317638 -0.07238014217401569 1.150208656471196
55
algorithm=ssw size=55 seed=1 index=5 energy=-258.614508505002 entry_id=5 visits=2
Ar -1.345273189968995 0.5565093667868036 -0.4434988502956876
Ar 1.936830457502767 -0.6676269670493254 0.01908890507900345
Ar -0.229333377709852 0.6324918029427863 -0.54858735015739
Ar -1.955023879917295 1.45621056859754 -0.2677005563559431
Ar -1.511343582503053 0.1222144983916173 1.101041206898538
Ar 1.425746137468203 -1.09935561895174 0.9377154814931778
Ar 0.196713945426589 -0.8526736939704587 1.918121242624441
Ar -0.908227540736366 -1.013225022782912 2.095611325398947
Ar 1.952848428665825 -0.6325204221162362 -1.08731525959111
Ar -0.1059930223606379 -1.844230229437608 2.224135486334561
Ar 0.245041375466748 0.2715055081300152 0.9003611610325675
Ar 1.415873852234556 1.375126326604494 -0.44496488117217
Ar -1.222509413570907 -1.284494612223799 -0.4982147812577696
Ar -1.035007731975521 0.09133015478353211 2.131371303545036
Ar 0.3622104248713336 1.210533428771223 1.429270699359811
Ar 0.7157926948804095 0.6868139396648135 0.00859843178184261
Ar 0.08839231275738138 0.2440348736736936 1.981617877418484
Ar 1.266044861629505 0.7440415401800043 0.9923254732611273
Ar 0.6136562065271686 -1.76749387074636 1.330118051467368
Ar -1.292019084301981 1.096357953978265 0.5400776508131702
Ar 1.23793047297398 -1.179338523108159 2.026403494223558
Ar -0.8275674413561497 1.538772556532696 -0.3704416046223517
Ar -0.2909327641122121 -0.414884122907095 2.794439095380163
Ar 1.178107762472419 -2.025164990255945 0.3898084485999775
Ar 2.018553376297593 -0.1263991584958009 1.030346736272337
Ar -1.4088259209798 -0.9966435169707872 1.069777529895739
Ar 0.7406198550387484 0.7499274855054209 -1.085380600388592
Ar -1.806883981279026 -0.3587143395268367 -0.9187655907313989
Ar 1.007513463104567 -0.2076144865082566 1.548805332680598
Ar -0.5930486293274625 -0.885988942820134 0.3221173282665882
Ar 0.8803488340338944 -1.080545568688972 -0.05421221250097474
Ar -1.041347805804878 -1.872935820327577 0.4193576473958212
Ar -1.559325141171761 -0.4214548147654725 0.1406303166475339
Ar -0.1721391023047912 1.172130321429584 0.435664171556013
Ar 1.843412945466206 0.5186119528595984 -1.051970709194971
Ar 0.1814831378234066 -0.2543563454210778 -0.06434446697130798
Ar 0.9127617032858294 -1.063683847834466 -1.146311085110097
Ar -0.4361336443617459 -1.4785320800029 1.240260509121849
Ar 0.6609742311348797 -2.011075559665719 -0.604085237585807
Ar -0.6954765480792189 0.2075864589172478 0.3614207196969056
Ar 0.8389046095592085 1.644680004193732 0.5045904626602147
Ar -0.538630177441513 -0.3642937983140609 1.279729555779322
Ar -0.7502747395171707 -0.3217296053182188 -0.6215608912825409
Ar 0.3514123885312137 -0.8251595702224754 0.8579960214403225
Ar 0.3063920577679813 1.592535113290199 -0.4789251025663578
Ar 1.832135922722864 0.470440805926068 0.05307638543305298
Ar 1.162706480324713 -0.1065342947390799 -1.680407827021793
Ar -0.07344072943819532 -1.177966604062239 -0.6115882313663118
Ar -2.174035501788171 0.4813429344677495 0.2722553677008573
Ar 1.700602137736929 -1.593826162681689 -0.5411123139984643
Ar 0.1933637160618791 -0.2180329840533669 -1.15546880770332
Ar 1.105813764505896 -0.1848583121935833 0.482219677300317
Ar 0.09126336711623588 -1.755632360321162 0.3211978966061648
Ar 1.128870370734431 -0.1460527327036088 -0.5789393284737617
Ar -0.6408628251027099 0.7509514775342482 1.341671741931554
55
algorithm=ssw size=55 seed=1 index=6 energy=-257.7162866027269 entry_id=6 visits=1
Ar -1.401362068656396 0.2266510275411163 -0.6126406757653453
Ar 2.044223302721458 -0.2007323276551859 0.1066770480991899
Ar -0.3286169529594185 0.5723143146300755 -0.612179323133517
Ar -2.22444752679666 0.9401364422830836 -0.4205820089054989
Ar -1.978797549129464 0.3712094992858789 1.445647895214844
Ar 1.571712908166486 -0.8357443762939736 0.9287956117400581
Ar 0.2333806181251379 -1.000836532608794 1.772934105613641
Ar -0.8215855607948512 -1.428855288528419 1.797207070253229
Ar 2.151991302193825 -0.05060331554273265 -0.9853404868191895
Ar 0.1399713585757059 -2.06071519498811 1.962649680329252
Ar 0.09812703991721769 0.2006847912454178 0.8545592194698221
Ar 1.062565320123171 1.685344868532259 -0.2697890009306256
Ar -0.5521353597988672 -2.115888803747609 0.03099388787310549
Ar -1.214441871953418 -0.3741331518051499 1.911729883573664
Ar -0.07006377966325711 1.084850849529227 1.463252522938202
Ar 0.5229228336110657 0.8049005679712046 0.052074771024205
Ar -0.1440821864859046 0.02748152116869906 1.90843872719124
Ar 0.9530311643691408 0.8974825231420968 1.094210219554971
Ar 0.9167616651329309 -1.717990618260978 1.175141634315526
Ar -1.560152816323821 0.6660371321833423 0.415153201021847
Ar 1.309474931350268 -1.070335107267413 1.979479479115799
Ar -1.146997486579053 1.288641733840637 -0.4172458063196287
Ar -0.4442639587726671 -0.7826344899721963 2.606998265546116
Ar 1.624088022706801 -1.733698289288888 0.2924048199051478
Ar 1.891011505914065 0.2386084211253331 1.155297831506991
Ar -1.878398844503125 -1.169953179891232 1.54226921990539
Ar 0.6275146280374367 0.9785680407307265 -1.024210482213159
Ar -1.418709999945766 -0.8209819542978413 -0.179831774957441
Ar 0.89057293111596 -0.1424343207401487 1.547294435764959
Ar -0.3737196494339864 -1.054357758637201 0.09419878229250503
Ar 1.14212536725613 -0.8501151975511841 -0.1162453824669061
Ar -1.193959789238809 -1.44754348477188 0.7153316129590082
Ar -1.554621712048734 -0.4044353299817142 0.824345260616564
Ar -0.4882332195540464 1.016461453418003 0.4156166953664168
Ar 1.746141522909207 1.026303954765183 -0.8844072835716503
Ar 0.2534335804091046 -0.2240680873432357 -0.15069732519396
Ar 1.270586397477817 -0.7179887178620301 -1.195114384342959
Ar -0.1596974413431217 -1.687703144970812 0.973891570229042
Ar 1.221772649825686 -1.747586009842597 -0.7526387492667067
Ar -0.7435954801035815 -0.03185308473396999 0.2082557641112041
Ar 0.3587408582464881 1.710851553601084 0.6279728506249691
Ar -0.5358113667826265 -0.6413603600756927 1.096354402250948
Ar -0.5912542685637278 -0.4822053218824539 -0.8206981723004174
Ar 0.4747403998199884 -0.8254920063433503 0.7415606381778214
Ar -0.05804432301999957 1.624125425495091 -0.4104278260735933
Ar 1.649116104383747 0.866465445889661 0.2062938728060327
Ar 1.308141904303683 0.3164846119612565 -1.627307026050452
Ar 0.3074360755275103 -1.117550872745341 -0.7840655159338579
Ar -2.24806867204606 -0.09935199607769346 0.02968358743625165
Ar 2.107675034906753 -1.095452230159546 -0.5416658319679121
Ar 0.3530688279364336 -0.08156291314488241 -1.225177560661129
Ar 1.077680323105106 0.0135151657516334 0.5031011738038632
Ar 0.5177668396303441 -1.72950603960492 0.1154295691330002
Ar 1.186279119968371 0.1622279415286834 -0.5430790574424619
Ar -0.9023271342560253 0.4054323149717419 1.225525411299641
55
algorithm=ssw size=55 seed=1 index=7 energy=-260.2552311868317 entry_id=7 visits=3
Ar -1.480321763045733 -0.6943089590129728 0.4834801672991362
Ar 1.979149449715127 -0.5422879148102209 0.1115223545063576
Ar 0.1061137617992967 1.213153767010676 -0.2332096553216906
Ar -1.108920880423947 -1.374697587892554 -0.3307867209098346
Ar -2.133568050110819 -0.5084867519971286 1.338137595890839
Ar 1.272406945730687 -1.170284324268124 0.7318458852639247
Ar -0.09581137587955951 -1.102533499651752 1.563061343217101
Ar -1.229491924727219 -1.120969526208109 1.488534713909055
Ar 2.20028431723444 -0.137688555302241 -0.8949910444358963
Ar -0.6184310840867127 -2.063363287047693 1.395806908489499
Ar 0.2499865680441143 0.3054863815800635 1.0273292432888
Ar 1.783359582308457 1.583031330490174 0.362036718486007
Ar -1.052458731706153 -0.4906336674790805 -1.006937000980623
Ar -1.259708680635939 -0.09029370296206465 1.910193954002334
Ar 0.3534388098871009 0.9662264347606464 1.875201917408621
Ar 0.9348097168498637 0.9134291034008892 0.4298679662927537
Ar -0.1207986746691537 -0.07097991629816623 1.988237304007296
Ar 1.281738924402741 0.5393814163630926 1.436776562492492
Ar 0.3486247787752335 -1.801601387482112 0.7532083835970548
Ar -2.393410852408381 -0.07224322081583311 0.3369020833681958
Ar 0.8917167629149275 -1.57378278537563 1.688945526212421
Ar -1.529582827743093 0.3262455002137451 0.9073081209006454
Ar -0.7151262224095356 -0.8999162708420174 2.441497593590539
Ar 1.041631994262318 -1.80034296432396 -0.1444270724644506
Ar 1.921257881203078 -0.4012084832830324 1.260204747285136
Ar -1.567380785711226 -1.795911227587533 0.6594198074116313
Ar 1.171753108836375 1.339245916786839 -0.5523687525221095
Ar -1.452100694972303 0.1753111739470772 -0.1941649085874567
Ar 0.8215987039995857 -0.4808545760144156 1.565024708835477
Ar -0.56372088661721 -0.4497131532587562 -0.0390553368663585
Ar 0.9203323287290516 -0.7239260941750001 -0.2486785962539572
Ar -0.4337446565505568 -1.385253398883784 -1.230478506113132
Ar -2.007838394486869 -0.7494501301277462 -0.4720597179357944
Ar 0.0337143057653401 1.366626811767636 0.8688248431911183
Ar 2.21375893661937 0.925636911071797 -0.4543380468916186
Ar 0.3152848657418277 0.1586687137699491 -0.05087798009706071
Ar 1.150106343224235 -0.3438643712707169 -1.248215258230572
Ar -0.6087070954498466 -1.317514157959756 0.6211001250910307
Ar 0.6987956174157792 -1.362904041720992 -1.124573496187967
Ar -0.5927107170989766 0.5833600823570266 0.3752808733855149
Ar 1.059152979455602 1.605821107748613 1.258154854445627
Ar -0.6402674696393019 -0.2990441505691342 1.04257538944267
Ar -0.5207895837445241 0.4401233211804471 -0.7212883531988049
Ar 0.2700321984255993 -0.7160284231495203 0.6205317156755916
Ar 0.7411947650718629 1.984474310055937 0.2552701534464796
Ar 1.992710415877322 0.510539151087453 0.5484516077113786
Ar 1.592903843467414 0.6811274705558603 -1.35536608008764
Ar 0.08625395318288606 -0.4608878619126841 -0.9232555083095384
Ar -2.462381264964187 -1.171005477918455 0.4775564490690134
Ar 1.752488351178752 -1.168901334006115 -0.7787493963999238
Ar 0.5332485778483061 0.5608588170623011 -1.040585333251549
Ar 1.131916603502665 -0.1154771263634585 0.6036002651710139
Ar 0.03021448402607223 -1.356322496954693 -0.2425054866898919
Ar 1.35205243394958 0.274559031082627 -0.3594228112153901
Ar -0.6660941733517148 0.7404841686047522 1.467872227316942
55
algorithm=ssw size=55 seed=1 index=8 energy=-263.7517893247313 entry_id=8 visits=5
Ar -0.4599822322794773 0.514918272538346 -1.545284307411058
Ar 1.494194858473745 -1.108587156146492 0.9099115123958745
Ar 0.3461163779869645 0.4443466502300573 -0.7951127973470432
Ar -1.362672107970801 -1.234866636443575 0.1616962431081989
Ar -1.482348548384284 0.5875030309582925 0.3221327062917607
Ar 0.6949798645041475 -0.8784159095486154 1.66183744542965
Ar -0.2846308175017823 -0.3731902661986029 1.788461456404391
Ar 0.1153163307485603 -0.9856898230826522 2.611968275065781
Ar 1.795941182710854 -0.9994130726171924 -0.167904635096479
Ar 1.045510617194119 -0.3650118200336395 2.569970563271451
Ar -0.1050484410084956 0.2626887859335245 0.9450312448828063
Ar 1.675545829377671 0.8275196857935159 -0.01116093395381132
Ar -1.102213531793716 -1.12883119839271 -0.9301474481261819
Ar -1.133073014752505 0.1658297996675221 1.309839549413194
Ar 0.3721959244394611 1.204273817738995 1.210276784977833
Ar 0.6272849540674811 0.7084898971638384 0.265046345918709
Ar -0.377081261208872 0.7367425819407616 1.896626923546986
Ar 1.37573962868597 0.7116677860741107 1.065747855404611
Ar -0.2296283636388429 -1.502871729285289 1.702322003194823
Ar -1.06135549913643 1.561118539961704 -0.06099010735380325
Ar 0.05146444756801352 0.1180061411306674 2.710030635170218
Ar -0.2700862931125701 1.357048495570181 -0.8307791231892384
Ar -0.9926524606826531 -0.9811930110578375 2.333657369806757
Ar 0.565865652580363 -1.743982377229286 0.9568275983341128
Ar 1.613264586762884 -0.2412528755341478 1.613528381789431
Ar -1.881990599048765 -0.3942716942412871 0.695139360748529
Ar 1.404755699361245 0.5562336669874406 -1.065723144182857
Ar -1.369061851981048 -0.1629642501379136 -1.472858710742783
Ar 0.6241376068046458 0.2567098846451459 1.759273637173971
Ar -0.3245903851850174 -1.116319522258163 -0.1647417256056975
Ar 0.7434066646906257 -1.066715441450226 0.1124968473273795
Ar -0.8228615490813518 -2.066222725694024 -0.3712812415668283
Ar -1.628784309346216 -0.2826482431373003 -0.3916508662757514
Ar 0.02901098579492577 1.61987981259462 0.2221682720232075
Ar 2.211260639331538 -0.01685084879250264 -0.5302748682093675
Ar 0.1539945541602697 -0.2013844640292282 0.02836059644111666
Ar 1.028150697758333 -1.565456791291964 -0.8031495166807635
Ar -1.059450522382523 -0.9505432168181286 1.210342740287545
Ar 0.2702473767879657 -2.030648204473258 -0.08984355473597004
Ar -0.4421287504746901 0.6618452312798784 -0.01839118514236502
Ar 1.118281093424531 1.65336403005256 0.507029621077226
Ar -0.8452558893873972 -0.2952414123935693 0.3589200069110092
Ar -0.5834155753032666 -0.1902987688884177 -0.7214929820944392
Ar -0.03363485745173294 -0.8404253618902945 0.8535017520097409
Ar 0.8351425285190744 1.393604179893261 -0.5485885077002653
Ar 1.92068206206884 -0.1283735144651205 0.5429641030323831