38
algorithm=ssw size=38 seed=0 index=0 energy=-132.067198640951 entry_id=0 visits=3
Ar 0.06187241130173839 -0.8727794121646241 -1.656012742564599
Ar -1.744092673026499 1.82967269413854 1.649950748542369
Ar 0.01790087413383556 0.2796492483442315 0.6400241945941381
Ar 2.696326386902253 2.003377312585353 -2.924393596770001
Ar 1.513699585925234 -0.2430057870974379 -0.06017264986545847
Ar -0.6174104590691608 1.814668769967392 0.03365113013144731
Ar -0.9248667568289649 -0.5680720976989336 -1.145621517642397
Ar -0.8566105977041738 0.8430653596851093 0.4352328796432325
Ar -0.1368344787044777 -0.801596952409046 0.543304502424496
Ar 1.074784854228312 -0.2138848772871105 1.903495916876198
Ar -0.0309021914257273 0.06487085312654864 -1.094100810242333
Ar 0.4456439187035764 -0.1824099038603925 -0.173833269596631
Ar 0.2055426491073659 0.4524791352520781 2.33501283920594
Ar -0.6491081130178379 -0.08859787186253883 -0.155428750713235
Ar 0.9305229491838242 -0.6857610406555013 -0.9708294274678542
Ar 0.8504455942265153 -0.3754356492234621 0.8289513614214646
Ar -0.764002250185171 1.730225228509441 1.154697310858952
Ar -1.995459701651673 2.257374483794726 -2.727829055164118
Ar 0.8287738595442118 -1.167213797579371 0.04948133681545712
Ar 0.7841450665442666 -0.01545613412828888 -1.833887290344157
Ar -0.1002322752564265 -1.009643585616975 -0.5675187802507358
Ar 0.7303773496133114 0.6555457078322167 1.353668679350896
Ar 0.004867581816828638 0.840871847393683 -0.3035143552772206
Ar -1.447807687977676 0.8023294106345107 1.356364476343204
Ar 0.1665541730431895 1.354627279248776 0.6692958058237188
Ar -0.8913510456022012 0.1168482712014784 2.097507934829004
Ar 0.9676064557068418 0.6732544418837577 0.2697873585535621
Ar -0.9244174627099482 -0.1129336481905731 0.9891706463473769
Ar -0.3527498348204665 0.7911967100250291 1.463322366408819
Ar 1.71330208149898 0.2535733918099743 0.9864148102427583
Ar 2.337519769896039 2.829861473724324 -2.253829572058253
Ar 2.421484098051562 3.22460689329073 3.068599842554174
Ar -0.945895242444684 1.272997225427116 2.226624277700834
Ar 0.9904125838341997 0.4621734991291258 -0.833296021022937
Ar 1.920189097441122 1.790212615469306 -2.139309643580454
Ar 0.01582960200464289 -0.2886677706453573 1.552278239268148
Ar -1.658963865702826 1.580331862621609 0.5443787544085219
Ar -2.852085421061619 1.693319429674879 -3.183891084601783
38
algorithm=ssw size=38 seed=0 index=1 energy=-145.1742127695886 entry_id=1 visits=2
Ar 1.195170154059664 -1.567138351236665 -0.8956808087502633
Ar -2.284905511424064 0.4868232504601111 1.297654919136064
Ar 0.1489661941842608 0.2730538821138084 0.5530745402406105
Ar 2.067154348388336 -0.6270028477543492 -1.73247696826858
Ar 1.609459308103493 0.6340777662768402 -0.2669085517358107
Ar -1.314260696253917 0.3995206039207483 -0.4163809709374305
Ar 0.2803754550584458 -1.757801282173249 -0.2278014321557097
Ar -0.8373888390495844 -0.08909729125923781 0.4183264263799804
Ar 0.8446745485625601 -0.4550984271666158 0.9833394337145386
Ar 1.082400783601896 1.358202496650743 1.522443817728714
Ar 0.4096021930753334 -0.8048614440850571 -0.7562236968041689
Ar 0.8601015941579934 -0.1206840753605316 -0.07703608873300172
Ar -0.05524384834933621 1.361397590727286 1.877589289613511
Ar 0.03707075273962269 -0.777225005259782 0.2823267296778286
Ar 1.587769397776107 -0.5428646454384436 -0.7286163735243413
Ar 1.165875694546945 0.5773429119658866 0.733565398643091
Ar -1.486777522667781 0.8327170196635021 0.615360527257113
Ar -2.975776604539948 7.796846473090042 -1.945419884378454
Ar 1.816896085448948 -0.2805124165154357 0.3762870893981265
Ar 0.9866214895302621 -0.7772137896263446 -1.661733170810266
Ar 1.118266228074372 -1.136827190165744 0.1267346983798992
Ar 0.2783720765083493 1.303308778588654 0.8053489310814667
Ar -0.1773455704907999 0.08155353017541653 -0.4724659237016315
Ar -1.317515742989354 -0.03826319766149655 1.397789671946759
Ar -0.5180744306056227 0.9956695180329754 0.0813379574025206
Ar -0.5309401058494043 0.3359947443125677 2.152302959554368
Ar 0.5430371643912482 0.8987567945821642 -0.2459659294728881
Ar -0.2547510243359105 -0.3788914391008438 1.317454848024618
Ar -0.5705461561656624 0.7259549221425785 1.155374675312048
Ar 1.21391549300322 1.581240085062603 0.300611587738149
Ar 1.317075001333633 0.157193206978341 -2.124949361206017
Ar 0.1581214428267488 1.909741012455769 -0.0943352253483524
Ar -1.402723583662419 1.003545983266733 1.779126371543812
Ar 0.8393827150054074 0.203732124491588 -1.099251969289042
Ar 1.951944563259498 0.3635744440510182 -1.257377571362987
Ar 0.4489422732618684 0.4361651168596648 1.576386223027519
Ar -1.929217938241956 -0.1523786218480384 0.4334383171460038
Ar -2.520716496753537 8.781122385134529 -1.655503641285283
38
algorithm=ssw size=38 seed=0 index=2 energy=-146.8714326531325 entry_id=2 visits=2
Ar 0.4005821904490608 1.674881399108413 -0.9391144195905661
Ar 1.375303985428729 -2.121852738434345 1.549238856467354
Ar -0.1002709083460256 -0.1914748704743366 0.795911660870271
Ar -0.8900244161621307 1.970761293250637 -1.309970555678262
Ar -1.381415600351286 0.6623844856875511 -0.03474637636140361
Ar 0.6199728481671353 -1.477538859955601 -0.1568822365714194
Ar 1.231159387497984 1.121359400719915 -0.3528743709863211
Ar 0.7878785466582451 -0.7269157633468817 0.5983190640119253
Ar 0.0573009004507156 0.8466204583375087 1.109941774400164
Ar -1.422404576590634 -0.04761635729727328 1.89713938628588
Ar 0.339887490681318 0.5991195639439372 -0.7156557529663586
Ar -0.319613694117485 0.546623174422446 0.1238303907269215
Ar -0.6591677959422617 -0.8949894975943308 2.261964801515104
Ar 0.7341301925947049 0.3663368650280589 0.3377589173907488
Ar -0.5405957350103267 1.325574782489158 -0.5234829859502994
Ar -0.9737103709784686 0.4186925346928121 0.9911596156718846
Ar 0.5230462883571571 -1.789888225796807 0.9273991589554126
Ar 4.944691502335834 11.83130264449335 -7.207581581297017
Ar -0.7758959075141014 1.430393264271919 0.5526585041018619
Ar -0.3263669428381707 1.001474654721939 -1.530903886322063
Ar 0.3109101976480378 1.416367328265536 0.1693140047774302
Ar -0.9471284599389382 -0.7113544151006647 1.192239665544028
Ar 0.1303413402018866 -0.4031665592894768 -0.2547866287426365
Ar 1.162720116743976 -1.037054283721017 1.574378676373128
Ar -0.2844137697346778 -1.197527697300999 0.4268072012198497
Ar 0.4608376708519228 -0.5936707171577824 2.375958768128795
Ar -0.9302468832019368 -0.3448549729465469 0.111000008364017
Ar 0.7392481735861116 -0.01032564735037313 1.445466482854451
Ar 0.07333311369621827 -0.9766966642962948 1.454876337979419
Ar -1.823140026097038 -0.2164837211282789 0.7354507151267099
Ar -1.399625629630008 0.9901822339033802 -1.116118652782011
Ar -1.432700665645596 -1.272948612997443 0.391701564215618
Ar 0.4784317385268486 -1.727939544174297 2.11093201859161
Ar -0.6868551476449348 0.2003945945459327 -0.8262783811933678
Ar -1.503751215873504 1.75075376191587 -0.2917479595317162
Ar -0.3089879652398315 0.04381017809557868 1.821996838266329
Ar 1.534460723816832 -1.525226282928289 0.6013999426516449
Ar 4.587090188684888 12.06216742975152 -6.16895372133418
38
algorithm=ssw size=38 seed=0 index=3 energy=-146.8714327094841 entry_id=3 visits=2
Ar -0.2358627422126217 1.516038471637445 2.465282441671699
Ar 1.264709015323976 -2.005283838173123 -0.162417520137531
Ar -0.002978907255941399 0.1586728446086673 0.2634967989722695
Ar -0.4705890290625435 2.758037571999526 1.924305694417547
Ar -0.3706396895457109 1.869008592190975 0.2571686225352716
Ar 1.702298971628779 -0.1926479008482241 0.4851365347774802
Ar -0.02743047519529967 0.3775569089299013 2.446958960398887
Ar 0.6931190914268816 -0.5267909662135574 0.6636552649161633
Ar -0.9556706076050064 0.203586741471646 0.8033495875034049
Ar -1.04968909024265 0.4560107325145232 -1.0771693242591
Ar 0.4272044566347467 1.055657274377689 1.717441202989011
Ar -0.1824533334519004 0.9814458086402713 0.8426528368478681
Ar -0.4928665248776017 -0.5967261801728371 -1.201408297171279
Ar 0.01842764709196628 0.04333418949492421 1.360559285318553
Ar -0.4086100334555269 1.803793276760373 1.43188274840565
Ar -0.7513976833884948 0.8605554521822687 -0.08371477107183842
Ar 1.242095032654897 -0.9043848958818578 -0.2660404953293899
Ar 0.6882576213544538 3.649772376528955 -5.803791675613551
Ar -1.205639664366491 1.336162845081057 0.8231762460342958
Ar 0.507458191459051 2.169328082755931 1.871282088344788
Ar -0.7506647369847274 0.8024412117536645 1.737745695684352
Ar -0.01674090486870101 0.3340810833367376 -0.7917496584527102
Ar 0.8581139156579278 0.5776631635426187 0.7972956064172405
Ar 0.3877205980774329 -1.503540654012177 0.2867546382169448
Ar 0.9549377407374404 0.177639013973874 -0.2506424752706128
Ar -0.581556910995205 -1.356415035719634 -0.3220805456440222
Ar 0.3855086933996044 1.118750744838269 -0.06637667626672859
Ar -0.38857929456478 -0.7767447777547836 0.6320485183575623
Ar 0.2118179216973972 -0.6396215051820106 -0.3670107589638639
Ar -0.2704019245704412 1.404248625541376 -0.8982170216645495
Ar 0.05445740997906683 2.665387050636294 0.9370798890482542
Ar 0.8179202195246824 0.984704043962765 -1.060188241155707
Ar 0.4462946297210006 -1.588066337857397 -0.8190743774856024
Ar 0.6050648711844401 1.714427117386387 0.8457594296959964
Ar -1.056721334722211 2.483718303251148 0.9029262152153136
Ar -0.8623936752587058 -0.2524718987286713 -0.2305935020275847
Ar 1.436025013751696 -1.326092332035065 0.7258519347102348
Ar 1.164466406838462 3.158439411538165 -6.693588054781848
38
algorithm=ssw size=38 seed=0 index=4 energy=-153.3934595414389 entry_id=4 visits=2
Ar 0.6474336873792309 2.292695869662076 1.347338822738779
Ar 1.246930234383236 -1.9397873885134 -0.5471533549590415
Ar -0.06747011386636419 0.1625840668907904 0.008745589337842764
Ar -0.06270127821124691 3.162936792604136 0.8412997236345263
Ar -0.8286244946078375 1.737716782696648 -0.2095522657229408
Ar 1.435684661262253 -0.002645772730635812 -0.8787951210259004
Ar 1.199471086237053 1.286479092505398 1.473733595211588
Ar 0.8904697581407053 -0.2791665370861856 0.009000421379093831
Ar -0.461663499941503 0.3838783824124986 1.008930702180403
Ar -1.740356778909305 -0.1273497218573731 -0.3030116428872856
Ar 0.8527872808567426 1.5660608091467 0.4943654423553146
Ar -0.09573391839284449 1.13631496687602 0.3067320312173469
Ar -1.09889890327845 -1.121527045891699 -0.475221494471708
Ar 0.6483151123476447 0.4946660919418878 0.7904805528730512
Ar -0.1323254922149026 2.11439056122859 0.6358823506838047
Ar -1.038193779829977 0.6486993639110189 0.07701169016897329
Ar 0.8484769073161093 -0.9705417281384301 -0.9011654587919762
Ar 1.546016380422069 2.209765276741714 1.993888693274988
Ar -0.9600958437661339 1.427013782369843 0.8855795469044456
Ar 0.7537320451939887 2.638791498610015 0.2686201627192257
Ar 0.09794339353048047 1.307568880606003 1.353512606944858
Ar -0.7648172737686735 -0.08849553094918566 -0.7615854392627027
Ar 0.7719437833179423 0.7932841471321868 -0.3082331564122234
Ar 0.7177865713422035 -1.336015262727859 0.2133719806475873
Ar 0.3291777583116303 0.01765858407591459 -0.9923727235395526
Ar -0.4131046975467358 -1.477331565206337 0.3978425787446802
Ar -0.2557187617322995 0.9353469030421819 -0.7384707049102622
Ar 0.1384728162234332 -0.5630330185135344 0.7758710104141282
Ar -0.05768444325120632 -0.8093661135583244 -0.3586073222608901
Ar -1.327242935664468 0.8413607456698187 -0.9576585210357198
Ar -0.3002705241345461 2.770128017565791 -0.2063099349086908
Ar -0.4927171545640493 0.4351756157710656 -1.680312931922719
Ar 0.1218070113714859 -1.849711149627268 -0.5696043539601992
Ar 0.2887215761319754 1.852635648532482 -0.4063128187610766
Ar -1.119045760907644 2.529041189685083 0.5367691001131905
Ar -0.8865974909658521 -0.4375206492913106 0.351940881451375
Ar 1.712091690066573 -0.9596417889397904 -0.2278619429359776
Ar 1.641012277238776 2.209614819708061 0.879058549957048
38
algorithm=ssw size=38 seed=0 index=5 energy=-161.2060995797187 entry_id=5 visits=2
Ar 0.8654687424905194 2.306162188997279 0.9476628606150335
Ar 1.45689845378541 -0.7101362378926589 0.9629493666167556
Ar -0.3800316603442893 0.05825996429347938 0.1616916285964257
Ar 0.7017877628556294 3.024305343588765 0.03957743977283266
Ar -0.4591537546361852 1.609407705180167 -0.7601150185836142
Ar 0.9835523293639775 0.3431677929209624 -0.9859308110330627
Ar 0.8943389157828355 1.299920826057513 1.558866807412722
Ar 0.4678028950788258 -0.3817520562779108 0.6756416764127577
Ar -0.9046315685997652 0.7810615030161584 0.8673591611256739
Ar -1.717842052713685 -0.07473629059879495 -0.6199785990051413
Ar 0.7735603066929632 1.338461968756194 0.5041346795694664
Ar -0.1856268014936679 1.102877445983188 0.1451374279973484
Ar -1.367178520453536 -1.043198305505278 -0.1869499682766146
Ar 0.1813261495888922 0.5904521637639537 1.041350362905184
Ar 0.1291566452263507 2.113598058477381 0.1310113469026713
Ar -1.113075070290711 0.7661300509289741 -0.2569792353012685
Ar 1.39695098341719 -0.2804972080553338 -0.05456397921223195
Ar 1.7647105663311 1.527677543134071 0.8221009249211413
Ar -0.9580993846806178 1.821208138203177 0.2559469878142244
Ar 1.268296405715007 2.077102646970703 -0.09742864037475808
Ar -0.1186383969225973 1.649601627506244 1.093954661611414
Ar -0.6788239822435995 -0.4053208222361941 -0.76468023562053
Ar 0.6129537501716457 0.4296237435584051 0.01491633020385108
Ar 0.0280768578391799 -1.260945076406992 1.137782738098772
Ar 0.3896168524427602 -0.4732174334377036 -0.5022852967145319
Ar -1.089155404970517 -1.138288920933208 0.8870504943505292
Ar -0.1101176662824992 0.5472458858387135 -0.7785091681620442
Ar -0.5164266258586639 -0.2561907156477168 1.182055532964563
Ar -0.3057014774062242 -1.014660050102921 0.1275878134703098
Ar -1.036336636224882 0.4841699661354838 -1.331873879650536
Ar 0.4244567557050905 2.387527095287094 -0.8694024421976979
Ar 0.1043900240428182 -0.1873500661032011 -1.539230471622906
Ar 0.8074933815755015 -1.263580921867391 0.1765903370912646
Ar 0.6149744190566776 1.34299973021856 -0.5875518321282288
Ar -0.5964685122253053 2.667881502449185 -0.4478051830388741
Ar -1.389768251742045 -0.1358404472618329 0.4472750000139795
Ar 1.284267302747988 0.4273842110396984 0.866294252623189
Ar 1.562007152697628 0.9211620663778949 -0.1359062249853067
38
algorithm=ssw size=38 seed=0 index=6 energy=-164.8033780997905 entry_id=6 visits=2
Ar 0.559453683017894 1.877309543211412 0.7059730421119099
Ar 1.250309680244663 -0.2392216438256112 0.5893524299106602
Ar -0.5126542548228392 -0.05190306570932907 0.2938790611748882
Ar 0.8470842217609449 2.401052558897898 -0.2092395171018971
Ar -0.1362672641566832 1.307648972516377 -1.32070095603808
Ar 0.8459386698294155 -0.3083721317896493 -1.152001658575581
Ar 1.356793905938004 0.4559716726646886 1.409453834055242
Ar -0.6531925479704533 -0.4058761843477214 1.288395417688041
Ar -0.3876887582943243 1.750355731608877 1.297773328782264
Ar -1.328361883297669 0.6567566911106957 -0.1234527322818661
Ar 0.8609155535158505 0.8384868524542878 0.4647734663543229
Ar -0.2284812713845876 0.9696364223380752 0.5613704728783131
Ar -1.56323884495069 -0.3429518373064951 0.3213636267907647
Ar 0.3012989913926372 0.117334601900682 1.036519776333446
Ar 0.2849899277582361 1.471495972709467 -0.2572579154112788
Ar -0.8312740945175211 1.572745825582111 -0.4993612708922125
Ar 1.043407771085508 -0.8961279667642791 -0.2598475303222474
Ar 1.522833602826797 1.504618278814216 1.034265910951118
Ar -0.3561070207867812 2.206810577608412 0.2531859414352283
Ar 1.400343771845445 1.386326855947777 -0.2682383076269688
Ar 0.5191844608703394 1.131794156059887 1.472616988292073
Ar -0.9938291941149856 -0.2376093182496195 -0.6730344395441491
Ar 0.4795017260048851 0.0444433865639367 -0.1132284992326775
Ar -0.455286252739264 -1.473404564619616 1.080486142146516
Ar -0.02841761225479214 -0.7397373113040726 -0.6187221246846081
Ar -1.213802015686952 0.5005714356210396 0.9415617178942917
Ar -0.3128617494921568 0.6308728263541552 -0.4821108242055019
Ar -0.4330327338415799 0.6610808321586517 1.65205098864035
Ar -0.7860069192250001 -1.086383892505847 0.09508263961859904
Ar -1.095322008593383 0.7366067278928093 -1.223661497134207
Ar 0.8511417145995714 1.809131647471473 -1.151767842765842
Ar -0.1486892910076406 0.1088745257814689 -1.387636048894816
Ar 0.2331978282386528 -0.8315933558397194 0.4967901958041895
Ar 0.7083517611399703 0.7415149133558967 -0.9228249027141948
Ar -0.08706677996662024 2.325423239410182 -0.8332370569897074
Ar -1.178893517629467 1.528039546742604 0.5495509926510858
Ar 1.946918577858492 0.6596285644468608 0.4801431996787512
Ar 1.503819052325321 0.210323529393506 -0.4005192035924525
38
algorithm=ssw size=38 seed=0 index=7 energy=-166.7191059553767 entry_id=7 visits=2
Ar 1.101349518706249 1.897215873030719 1.043704245461804
Ar 0.8499354047707498 -0.5095622690069577 0.2325831082388562
Ar -0.7499270561291899 0.2016872140969412 0.4577081969711772
Ar 0.5849007491767492 1.86390086297325 0.08647727682980354
Ar -0.2527217771522637 0.3563016411588367 -1.242692329281564
Ar 0.4055971591060304 -0.6678172197012493 -0.8154558094691836
Ar 1.17539832090266 -0.04586230374434731 1.267070906527324
Ar -0.513741781786078 0.7410664658803271 1.380387762897624
Ar -0.5172858904691896 1.854869306295924 -0.1549723146194885
Ar -1.694336043112163 0.3955882409749871 -0.03918633227890131
Ar 0.9334227063323162 0.7023938103962518 0.177332119818851
Ar -0.0659565031700569 1.041537052027574 0.4256514427394221
Ar -1.558588831577301 0.3040200831020084 1.132379395654213
Ar 0.2203686007175723 0.101898902749593 0.8311977728187994
Ar 0.2170846327543356 1.136016146601426 -0.5943110628769708
Ar -0.6386578621228599 1.447755865464808 -1.231932450914913
Ar 1.507869446472458 -0.405787582673019 -0.6279118580571572
Ar 1.644844415709216 0.9172519404018077 1.007114298542487
Ar 0.2269550501819183 2.138353860879324 -0.9693831244257903
Ar 1.642781235783015 1.559467332864676 0.1218458152184674
Ar 0.587739983717768 0.9757918499211299 1.310702209210248
Ar -1.39205076050088 -0.6392445959487962 0.447713202405317
Ar 0.0917418203964802 0.1483285889695104 -0.2226736222272339
Ar 0.2335495661751602 0.05650674148836594 1.900416713511164
Ar -0.249177477834134 -0.7575076141023149 0.2926675840573368
Ar -1.144775524636192 1.222762276643745 0.5596026598191849
Ar -0.7518614511016913 0.8098249588955346 -0.3805949026442076
Ar -0.04703066480690751 1.896512275251669 1.045869676206429
Ar -0.6327609732340828 -0.4093471915827154 1.328033765554952
Ar -1.395795636501638 0.5378744581647421 -1.174943206461284
Ar 1.170469776365027 1.50656850489832 -0.8729733199205557
Ar -0.8807740548164761 -0.2724135318092815 -0.5256562030403864
Ar 0.3986262837964317 -0.8784770212055769 1.221771576495095
Ar 0.8471147498372406 0.3785484001138478 -0.9916645765856416
Ar 0.3920031980098843 1.20337353321532 -1.648036082050716
Ar -1.562337417006131 1.481153300022659 -0.4903068028013952
Ar 1.801541204512232 0.02945446794447304 0.362737483622227
Ar 1.799496768053282 0.6716699917004483 -0.5225263697600849
38
algorithm=ssw size=38 seed=0 index=8 energy=-160.7829688524534 entry_id=8 visits=2
Ar -1.22966623880878 0.843543879142708 1.26524777878708
Ar 1.50913525641249 -0.1356195758562756 0.6520227576077426
Ar -0.3206539231242841 1.017731021685637 0.5928205127214251
Ar -1.04718767822572 2.391860762809169 0.1417844058910495
Ar -0.6649404433509111 -0.2940208448509825 -0.5411539180564334
Ar -0.04696616109852311 -0.3001948341348427 0.3606516810408266
Ar 1.924307874532899 0.2057205080214199 -0.3042434506431359
Ar 0.6650821215453443 1.400397424353373 1.20945217158099
Ar -0.3954729554142833 1.624597239190447 -0.2816281150830752
Ar -1.487361642000713 0.9794378900666996 -1.546332196150882
Ar 0.8625525522667402 -0.178054625545558 -0.2388215724087922
Ar 0.5881930774114517 1.497526241422358 0.1458619372000921
Ar -0.7197637711261963 0.5552888209901113 2.237828564730566
Ar 0.616077674589035 0.5005799152667533 0.5920530207555103
Ar 0.4326083257091451 0.737550462218577 -1.416794843832322
Ar -0.5921543529445796 0.2968086373155058 -1.484278888142691
Ar 0.1318344049717688 -1.075517353210617 -0.3781307495105456
Ar 1.742580873492169 -0.8709467968446922 -0.1301814487340072
Ar -0.1413840221568878 2.074585570137553 0.7357635920652498
Ar 1.311043042752903 0.02926465759916816 -1.230781708771618
Ar 1.083790980386815 0.847684541125573 -0.5409040187393179
Ar -0.3471858224023932 0.1910718288646685 1.271094644828871
Ar 0.03904783041956527 0.5768796123994869 -0.3733981561530351
Ar 1.561228012940635 0.9916662738094039 0.4437148039746884
Ar 0.6335814722617846 -0.2974842513637844 1.323906021251329
Ar -1.369461065996384 1.781041945517504 -0.7596333576596559
Ar 0.4976140641412642 1.712367755497018 -0.9199868148342237
Ar -1.32506943040202 1.323653872927542 0.272844696944598
Ar 0.3805914065494814 0.6126691257404656 1.948228413817036
Ar -1.007938724974372 0.7507895910904651 -0.5826960370805979
Ar -1.155526335067937 1.947351518192651 1.15719360670565
Ar -1.019790518239845 0.2216147801445269 0.3719662916189848
Ar 1.35264190882723 0.5748257415906175 1.454646118211022
Ar 0.2538809532218988 -0.2862822100143608 -1.126273592983123
Ar -0.3379890757585349 1.38203443753783 1.619646808492298
Ar -0.4724118315382483 1.377077512214669 -1.332891350912478
Ar 0.8199010427172524 -0.9965020278252321 0.4848868602694533
Ar 1.060242003000639 -1.019324430871293 -0.9657376236140225
38
algorithm=ssw size=38 seed=0 index=9 energy=-163.5880554778262 entry_id=9 visits=2
Ar -1.382315195384553 -0.3956032507708455 0.6757368407464569
Ar 1.567604427332484 -0.2707819428934831 0.9894359801586369
Ar -0.4073871845665692 0.5377170105668543 0.8814735520506218
Ar -0.7722184761837904 2.357011840572519 -0.01980739187277074
Ar -0.006758034726575635 0.02651292408306408 -1.146742289478937
Ar 0.2894151728442398 -0.6550440071040624 -0.2939428025292383
Ar 1.505103423437851 0.6511541409393198 0.3057092112678112
Ar 0.2440749159202276 1.242290608452885 1.374083193441125
Ar -0.5232215727253845 1.319751896470557 0.02647537908559007
Ar -1.408047205146704 1.323360387359105 -1.54921700214032
Ar 0.7910611941146943 0.310196184508806 -0.4218983212664971
Ar 0.04554390720935576 2.045776680816992 0.6922146759264511
Ar -0.7712166248532524 -0.2383682083620779 1.58799968677372
Ar 0.6024212343944604 0.06389687618449597 0.6040149602026298
Ar 0.1517587186993164 1.062652767142985 -0.7904880361425694
Ar -0.324903208435778 0.9601264138274872 -1.752133643667698
Ar 1.032702434823399 -0.4488792530540733 -1.138964053196103
Ar 2.341509208023537 -0.04748557934071711 0.1860618192154621
Ar -0.8557310375795437 1.51006791196461 1.046949439263618
Ar 1.189690706431195 1.321193438217891 -0.5132747321083075
Ar 0.4607649357076159 1.070661877753109 0.2953857704206099
Ar -0.3029997147307741 -0.5319923806866743 0.6249861162894041
Ar -0.2075338206593312 0.2945728645181346 -0.1068071104692154
Ar 1.170293948404817 1.688325063368625 0.774016120551506
Ar 0.7210068597202662 -1.001978862001449 0.6989649508347067
Ar -1.498947675278069 1.499802910039175 -0.4099855551573341
Ar 0.308952079907918 2.020845113126521 -0.3445565407272022
Ar -1.260575953076734 0.548108203721293 0.1621104460740045
Ar 0.2706560015453969 0.1274429825770431 1.634502765616594
Ar -0.8819838438536951 0.6710163652066372 -0.8491733739440741
Ar -1.45090959500216 0.5781639169258481 1.243852948038739
Ar -0.9177303974029384 -0.4354117125676316 -0.3678411832822928
Ar 1.171377449628277 0.7017705022239854 1.329172971852973
Ar 0.9187621007248415 0.6399839006143242 -1.443276996994493
Ar -0.6023301548890257 0.8129099344590663 1.926396410407257
Ar -0.599682644875611 1.802141370244447 -0.9808493016790377
Ar 1.371818117941951 -0.5033646647004524 -0.06193566808478091
Ar 1.804986388078495 0.3331303919479588 -0.7409023902922831
38
algorithm=ssw size=38 seed=0 index=10 energy=-163.6452836088021 entry_id=10 visits=2
Ar -0.89910295978217 -0.1554476582807058 0.9309334419192749
Ar 1.518906098274544 -0.02285980435240221 0.7680569178178945
Ar -0.2005112768749228 0.762683029977687 0.9992832228796836
Ar -0.8598890332268648 1.874757396962125 -0.7815883269064551
Ar -0.4044310873215923 -0.1696046834829134 -0.9372909068377117
Ar 0.2463160275143739 -0.7753357296295973 -0.2183165238534328
Ar 1.427516594687918 0.6832812213363599 -0.07572389559006061
Ar 0.3098474016999531 1.982395723757838 0.6274982316092819
Ar -0.5223552455347567 1.38923137908499 0.1441045391937472
Ar -2.204194485263071 0.9389108809757613 0.135207548459564
Ar 0.5069378502169251 0.2251835285217607 -0.5078462632389749
Ar 0.1880190536282657 1.94413552960305 -0.4666295336704333
Ar -0.1073412496639754 -0.1077370062695733 1.661695807710194
Ar 0.4650612934143708 -0.01240419504844014 0.5550739008845553
Ar -0.232783953684394 0.9464874452939409 -0.7875597199826087
Ar -1.583101559813847 0.004836460911321607 0.07761606034076919
Ar 0.6630434609204594 -0.5684289766979564 -1.222777840410021
Ar 2.29439182190867 0.01490835677885753 -0.06956464216842037
Ar -0.5905148083484116 2.46369999284203 0.1722881991574949
Ar 0.8511680027131004 1.1863053794234 -0.8907552746215939
Ar 0.4494626805026792 1.022832297077833 0.1641669706354983
Ar -0.07781547129698274 -0.8948010551167935 0.8526006361052247
Ar -0.4594333019410228 0.2951837873925738 0.05075030763291381
Ar 1.20469198171029 1.81140164726197 -0.06397736559187901
Ar 0.9882579240463777 -1.058626053067305 0.5362069979656977
Ar -1.506488147354885 1.814243982777148 0.1758008057754229
Ar 0.06452923521444121 1.652171188331225 -1.540619162535428
Ar -0.6878913407443766 1.773600930977845 1.123917173745128
Ar 0.84945910231251 -0.5920687433135243 1.488361797479069
Ar -1.259851840252162 0.8575863971134235 0.7067786250604821
Ar 0.3373617551045292 1.496343259223412 1.5975602439583
Ar -0.8056696979173136 -0.7520228306003816 -0.009801157069421019
Ar 1.217468644680146 1.276141822596626 0.8816478869693484
Ar 0.3611230138499819 0.4591063913038175 -1.568301374713603
Ar 0.7848183165591728 0.494663931759598 1.469247278912742
Ar -1.270994072562649 0.891442925278407 -0.4603410343072339
Ar 1.311711373695432 -0.4268755510525851 -0.2691026857679123
Ar 1.417288784449445 0.266352016701436 -1.1208540417629
38
algorithm=ssw size=38 seed=0 index=11 energy=-164.9792110381404 entry_id=11 visits=2
Ar -1.027154286518288 0.3495154494323452 1.106559056514183
Ar 0.6939002318505741 0.3583684716446621 1.650733966714821
Ar -0.4043319876206887 1.146269474544487 0.7509961096641677
Ar -0.01018166891935776 1.72049212320844 -1.28296430756521
Ar 0.308165496400809 -0.09166265556742199 -1.233702447143169
Ar -0.2572423751296235 -0.6564930196853683 0.1428281287421493
Ar 1.427175795668325 0.7652029336228707 0.8359114456170179
Ar 0.1558651570309464 2.060807247732681 0.5015166838544246
Ar -0.2975846159897854 1.43309885880803 -0.2741292384072217
Ar -1.464795601741892 0.4327124782684716 -0.75150710276163
Ar 0.5884663048515196 -0.03793146748578243 -0.1675494014076329
Ar 0.6884759970448012 1.884838666420169 -0.4318725035707087
Ar -0.2809284409412911 -0.2073784833032218 1.817616002016123
Ar 0.02142395968455712 0.1494101994724739 0.8262282706106489
Ar 0.4608839840387882 0.8604153507919249 -0.7653400165144171
Ar -1.257240909085142 -0.1715416944122198 0.1549113706394419
Ar 1.205546257152398 -0.6985277690545387 -0.7875560917547952
Ar 0.166489970951659 -1.069963266932995 -0.7685618136563027
Ar -0.2846201224810432 2.482546301757743 -0.4645717799211617
Ar 1.44412157862894 1.086743112070971 -0.2841022274064123
Ar 0.5283636246139785 0.9659140547504804 0.2852359835021767
Ar -0.8656831271185094 -0.7289321064958534 1.040435475469106
Ar -0.3901996632182322 0.4039917274409061 -0.132952848223519
Ar 1.231933752196703 1.810683517744079 0.5274385133083009
Ar 0.7727027925382698 -1.081543683559813 0.158696220094207
Ar -1.203397722115672 1.545404573488253 -0.8120300093507083
Ar 1.161374391769468 1.446309725687829 -1.33461514020698
Ar -0.9481133921186996 2.030335477231667 0.3607281237338119
Ar 0.226108206181807 -0.9009522254268925 1.116656676418095
Ar -1.282650847143502 0.9765257672173648 0.1666448121053871
Ar -0.4237024586925646 1.969989164142676 1.44318740058008
Ar -0.6920809375750444 -0.3582533506526254 -0.8355968307515432
Ar 0.5477647752859577 1.382918210288044 1.286788759051791
Ar 1.345274214725499 0.3395487525783782 -1.08617527857139
Ar -0.2943593822311584 0.88129486390638 1.787373935476911
Ar -0.5140505974004765 0.722645308675846 -1.180390108209709
Ar 1.045747401844044 -0.2490908324432872 0.8095045101892056
Ar 1.663545129101419 0.03796336044492207 -0.04862745369525517
38
algorithm=ssw size=38 seed=0 index=12 energy=-169.4898024135751 entry_id=12 visits=7
Ar -1.297911636619217 -0.02560572283813602 0.7556165119213284
Ar -0.7192975207104013 1.459078598989148 0.8939880476372262
Ar -0.8799358408944931 0.7094179732021829 0.05722985626814731
Ar 0.6186327103756841 0.5299783578842778 -1.413831477168009
Ar 1.563186133270502 0.02242394581118878 0.05623889520145112
Ar 0.3805704121527994 -0.3206858263882471 1.395862098537069
Ar 0.139188732543628 2.146508017277366 0.57867063151729
Ar -0.8813702842174596 1.564097667965539 -1.244953019117736
Ar -0.1631356607440149 0.9181122525884049 -0.748251372744249
Ar -0.04346328885017747 -0.9601149101896975 -0.377363473627713
Ar 0.7569356300395381 0.4237546673530772 0.6831794237578021
Ar 0.2302354352516572 1.58047073084673 -1.514601117937755
Ar -1.122070180953918 0.7040061226855451 1.595900574884673
Ar -0.3064613640012339 0.4059671318456097 0.943345380568869
Ar 0.8454149545539124 0.7399191303475043 -0.3610951018051846
Ar -0.3760886010621955 -0.6504753086025027 0.6407569620459778
Ar 1.772443033929967 0.7515945489351457 0.8865295705488243
Ar 1.465733808517731 -0.2986936827122685 1.123731761158332
Ar -0.4147437283146451 0.7121136084272519 -1.802851870029157
Ar 1.269956124173858 1.396927203998301 -1.114726276020328
Ar 0.07796623653018289 1.125656656828735 0.2644119598634965
Ar -0.7077968677871064 -0.3350512642616221 1.65590567133194
Ar 0.01881635887950961 0.09411518956769797 -0.05290954628028668
Ar 0.4767973124919687 1.805129765445048 -0.459558244549198