75
algorithm=ssw_guard_v7 size=75 seed=0 index=0 energy=-277.9178483656908 entry_id=0 visits=3
Ar 0.783093933161277 0.829791188063039 1.320884951694112
Ar -0.4111183863480756 -0.550542409995375 0.8165222316719599
Ar 0.9291084710561944 1.600009626316826 2.11983614510613
Ar -1.219640436296194 1.336413733072923 0.04833873232295419
Ar 2.242091971915655 2.443484943537238 -2.078697600929035
Ar -1.462715029708144 -2.883995180197298 1.765934757834442
Ar 2.252030319396798 0.3498889498113759 2.87882900956565
Ar 0.9660601592677458 -0.09644505435561011 1.833817285691456
Ar -2.720094219568368 0.8314655350066659 -2.242962310983861
Ar 1.933850789979035 0.3507402596347987 -0.9888000236130123
Ar -2.138291414111838 2.002966004813286 0.1352885098657763
Ar -0.3741224916863949 -1.537294339565102 1.327873380375392
Ar 0.4901402126681256 0.6508675853857985 2.430974955982082
Ar 1.691792155148722 -0.5582430178638662 0.2771510030336731
Ar 1.04281540156932 -2.198501484255215 0.5540127866927922
Ar 1.788521257754429 -0.7181891446199544 -0.8257657403144734
Ar 0.007053756080870573 -2.383539340612175 0.7914346563360897
Ar 1.394523924267854 2.506526256760427 -2.880451629445588
Ar -1.174041994102004 -1.775813579436678 2.022251578549188
Ar -1.992347758586872 0.06038347829008298 -1.809111764154817
Ar -1.051201751933365 -2.238616318690261 1.017332177776322
Ar -1.673429097346702 -1.891892236297809 0.2254363834077609
Ar 1.320031057514837 -0.9390811651233817 1.239001092129995
Ar -1.819547323692029 3.063912077866106 0.2935226051265286
Ar 1.675650376003238 0.1862218248115809 1.062029074542046
Ar -2.47691270697158 -0.9399377109632405 -1.865128456781637
Ar -0.7762836077411037 -2.606722955327465 0.03735972832724566
Ar -0.3497849278649486 -2.513487674697601 1.83864503836085
Ar 0.4251725622758148 -1.279579643595619 0.6115005678724348
Ar -3.392579061073549 0.6271213786267582 3.615187613666112
Ar -1.802667975414867 0.5274552634713234 -2.800923725124216
Ar 1.14377598449324 -1.379763123766397 -0.1882830807544358
Ar 0.6561139254975772 -1.867813894705257 1.558581385221159
Ar -2.519700784461996 0.7788734425194012 -1.15066331613502
Ar 1.234382957525897 1.900694338806771 -1.900644023358136
Ar -0.1279760203970272 0.7556356614901925 0.7140763275701327
Ar -1.209750430574418 2.38667809733447 -0.3596771555612631
Ar 2.435652339890104 0.5006743244970219 -2.06774231574348
Ar 1.063189988113546 -1.088094100588741 2.320262692398843
Ar -0.1314334151029104 1.282723816987526 1.728788885710026
Ar 1.234417667556371 -0.09528372108884174 2.873331383786757
Ar -0.1448189317087512 0.02033115078954483 -0.0811402294710019
Ar -2.047319025456366 -1.98919967595246 1.313659763237901
Ar -1.83346967174558 1.605549550569954 -0.8567447077319489
Ar -1.343755818925687 -1.156095679740314 1.067372667046174
Ar 0.6476815133875817 -0.1704659621741446 0.7512063868395945
Ar 0.3176440806261812 -0.814006770525562 1.584013590439389
Ar -0.7370715852086407 -0.6953191708642661 1.914031700762961
Ar 2.209565267269455 1.42066191417572 -1.500673816574823
Ar 1.635195612137412 0.7235636643343799 2.047194863954168
Ar -2.609747758648198 1.775866855289802 -1.64893538519627
Ar -0.06454703287616434 -1.505639749939016 2.366765880578417
Ar 1.335374902352292 0.7695978742183036 -1.925039422579496
Ar -2.922031273573332 1.658979968103357 -0.5850209878876244
Ar 1.319510350014843 1.014506138809635 3.053298580938077
Ar 1.940432124307403 -1.578789375318315 0.6246475493935602
Ar 0.2416494793723818 -2.064858790833552 -0.2200415049867949
Ar -3.492602812945768 -0.8366712136523041 -2.334660718882358
Ar 0.04139738367009758 -1.008162134588718 -0.3864105195031491
Ar 1.96404724262396 1.488111514521636 -2.625438812040857
Ar -2.251156016401755 0.9133748477669718 -0.0801732814200956
Ar -1.218939407911053 2.216510344739035 0.7454983710049343
Ar -0.08236663314563138 0.1628398866491083 1.628826735603775
Ar -2.650164345079487 -0.1921221810728706 -2.679569127688262
Ar -2.237953301090913 2.47176767216672 1.145750396070127
Ar 0.7903257558282168 -1.0819076655974 -1.184164068649029
Ar -3.099784682820815 -0.03090434001910357 -1.658192391780675
Ar 0.8667783201882948 -0.2974712609167446 -0.3597019251225315
Ar -1.722426611611157 -2.971607496183039 0.6321978350848356
Ar 0.183577413069484 -0.4145849248695079 2.572443810694359
Ar 2.406722457812801 -0.6688762879553795 1.101439436469138
Ar -0.6695843317762102 -3.252314282102101 1.002848891355012
Ar -0.6182181647085583 -1.535073041147199 0.2909669185164679
Ar 1.973306924820935 -0.3929645099893653 2.070213357861332
Ar -1.716247103469975 1.134344313401303 -1.857034893227222
75
algorithm=ssw_guard_v7 size=75 seed=0 index=1 energy=-355.1641009359499 entry_id=1 visits=2
Ar 0.9342115928859993 0.9900443146559322 0.892735628240421
Ar -0.5243081560210578 -0.1606477432442771 0.8514970032950955
Ar 1.34237260525678 1.53584907841116 1.758598239083596
Ar -0.1865898332059088 1.190870300701548 -0.4161253074544396
Ar 1.266704672676835 1.521926370526577 -1.804679954047032
Ar -1.55860018488228 -2.474581851185635 1.818035453912342
Ar 1.860366457367739 -0.2717640906711161 2.033359283032084
Ar 1.174890235488661 0.002215416800998979 1.244765107304808
Ar -1.597154398337571 -0.01449507335716862 -0.6363388310273915
Ar 0.8414854986559276 0.8981513553183508 -0.1995290807540227
Ar -1.106801067650751 1.47503949063087 0.04382649379716246
Ar -0.4093464956979264 -1.275653766935342 1.157408633872046
Ar 0.336229816226056 1.285650889009184 2.239120884685459
Ar 1.099295830708626 -0.1570965758297257 -0.4982327449865382
Ar 0.3403107554457526 -1.812211208621379 -0.2956778654358008
Ar 0.2897941332024935 -0.1355961426797353 -1.671986773474491
Ar -0.4786412543712592 -2.027513658803275 0.3880223164571038
Ar 0.8895180245425806 1.684603378968323 -2.843902367610757
Ar -0.9649206472207653 -1.531313803228804 2.073904324158077
Ar -1.447138165857334 -0.7904712108998195 -1.413423189818191
Ar -1.318167114601363 -1.762416004951737 1.063016948886531
Ar -2.071194393666004 -1.100918202163213 0.664157393065795
Ar 1.136745226979244 -0.7387289441299981 0.4311575203531284
Ar -0.5037264475713885 2.037158025202904 0.7235567328855889
Ar 1.615874107109124 0.3291085883865389 0.3278127098077859
Ar -2.613884500192067 -1.659283771053351 -0.09466302957593885
Ar -1.55061359450107 -2.004957622157822 0.03967234374338039
Ar -0.4430703491727316 -2.31374591707623 1.468481031964004
Ar 0.0394990967618434 -0.8795710895287141 0.1991649352309295
Ar -0.8739414866766073 0.2812831590801897 1.80816062323091
Ar -1.80851554861274 0.2617360422776832 -1.659210840149236
Ar 0.3458505222119599 -0.8584504421738901 -0.8296614649283577
Ar 0.5552503482309201 -1.64885654122971 0.7940205036580372
Ar -1.762509860223259 -1.045529674104833 -0.4159185366806716
Ar 0.2079137905286771 1.823473309263464 -1.970502345516156
Ar -1.190923525352167 0.7740701550676092 0.8910832383369919
Ar -0.3680526278500807 2.245816830578892 -0.3899166339748949
Ar 0.9156205595762005 0.6491412509433813 -1.238663031849714
Ar 1.325543352095867 -1.09786660673713 1.457031335338418
Ar 0.3835077393657601 1.824062443205434 1.299214138289576
Ar 0.7565664108141191 -0.4808266470214113 2.18813308098795
Ar -0.1421215619408439 0.9898811213971483 0.629638450303607
Ar -2.075194082408566 -1.449174758577637 1.749467563535804
Ar -0.7862685122834068 0.3910929630452052 -0.04241673024123641
Ar -1.305205198303008 -0.6988834908093223 1.398800022771127
Ar 0.4456039338063241 0.109669661339664 0.4013393047686844
Ar 0.3777469426675071 -0.6313262250550565 1.195953570683803
Ar -0.3336118091717516 -0.6175048608280864 2.006968591693656
Ar 0.5939472299793922 1.699226807856033 -0.9355820495363871
Ar 1.968448255060059 0.6901033334480038 1.363079299269006
Ar -1.167586789788623 0.946206071750048 -0.9214063401422798
Ar 0.3427640279122499 -1.503372902290826 1.894263595631913
Ar -0.12908212072255 0.9302381544168025 -1.444478994816841
Ar -1.915596461258734 0.7612807359032663 0.04047414679338659
Ar 1.113412448494703 0.5467261971445158 2.161012520230293
Ar 1.294890076299918 -1.282291407039403 -0.4937684553557841
Ar -0.7281013891725103 -1.615912501586243 -0.6154261555478504
Ar -2.517659290381277 0.5423669163487794 -0.8457366755131542
Ar -0.68687134178277 -0.5629052406829503 -0.5517977965389884
Ar 0.5616322942143721 0.7809011487268247 -2.278190837948555
Ar -1.557911026429646 -0.1649623549953305 0.4688656879832935
Ar 0.4705711438208054 1.824158974886679 0.209151020631159
Ar 0.1923100854423945 0.4156339593121225 1.489518194273768
Ar -2.465185030886 -0.5300550774679788 -1.12213005357601
Ar -0.5397778037114117 1.30273106070877 1.592686320346991
Ar -0.4113334679017065 -1.015517991725332 -1.560369458081944
Ar -2.499641836963951 -0.2963078812007599 -0.04595515286652005
Ar 0.08582654883020777 0.1845611964938762 -0.642691034681341
Ar -2.273801340968535 -2.200165535565383 0.8791315363180909
Ar 0.02180468581828306 0.2767176677296891 2.546947823680372
Ar 2.07102184651727 -0.5632851795622122 -0.147776652785604
Ar -1.233049864723976 -2.790841259000394 0.7765722532090947
Ar -1.011124350263622 -1.059435805204724 0.3270195781674252
Ar 2.10910323366873 -0.4482473363130654 0.9570911492197266
Ar -0.7551892482308994 0.05747629083153356 -1.409027183124559
75
algorithm=ssw_guard_v7 size=75 seed=0 index=2 energy=-371.6406392762016 entry_id=2 visits=2
Ar 0.5845869822340491 1.008695249401196 1.022474352039728
Ar -0.3809998838979787 -0.1174671460102133 0.2194995997557781
Ar 1.335540851301068 1.59146634040827 1.565541703469301
Ar -0.81563798353911 1.205542303761678 -1.395006416546366
Ar 1.096587774794659 1.021930136500725 -1.653968644567195
Ar -1.799851934018564 -1.937198034976394 1.893614585003221
Ar 1.782846930774582 -0.3079260236173917 1.585829111625615
Ar 1.018756025984345 0.0362845277568884 0.8667188866702104
Ar -1.519753921321013 0.2399658306526636 -1.165436914354644
Ar 0.3886579432000036 1.670909154803791 0.1252075471762273
Ar -1.367410848932056 1.134458741000239 0.129490003356371
Ar -0.4279617460597501 -1.612639577774405 0.6976606869111104
Ar 0.3994154682360264 1.364108517209395 2.085043062677306
Ar 1.13716903454842 0.292128164711587 -0.8548225946551359
Ar -0.2457660740178421 -2.148059925163923 -0.2366346216934832
Ar 0.991389151793717 -0.7647623987144603 -1.109688125161199
Ar -1.306655023631526 -2.031961458881447 0.09865014871245723
Ar 0.5595190800972228 0.03414206834438544 -1.742391763237785
Ar -0.7322398118356205 -1.628351431796586 1.780690096411627
Ar -0.1678874287943213 -2.046937352716159 -1.348881023476753
Ar -1.445667930587749 -1.449429570556262 1.00892126419013
Ar -1.796599881682053 -0.4591057974883233 0.8335990135901076
Ar 0.9291134181071116 -0.4865502820721582 -0.05344598093882223
Ar -1.54268490696551 1.273515183216713 1.239011329204326
Ar 1.402223595652237 1.479929882729971 0.4790065666180715
Ar -2.516324759984372 -0.2703629535657801 0.002288017969043845
Ar -2.15969671264218 -1.298287050222485 0.2075633580526037
Ar -1.06847610402667 -2.454236240279478 1.110006608276154
Ar -0.05831946525068205 -1.067853105470856 -0.2362915902924619
Ar -0.9072791734302458 0.1676295855173192 1.928474576183563
Ar -1.171935971662168 -0.7646762647929722 -1.675024169867963
Ar 1.548769826815914 -1.353033389436092 -0.09754218882163777
Ar 0.6067874143997233 -1.720550301193911 0.3776759675302056
Ar -1.826906111592326 -0.7806189754844597 -0.7151834868587937
Ar 0.05900470667702591 0.9925216379344061 -2.051234295188575
Ar -1.097122002207005 0.3580602366540171 0.896216447903918
Ar -0.7560113234952978 1.889086341204405 0.6882518693852715
Ar 1.16642141766504 1.327556732568414 -0.5727450177416662
Ar 1.256380372482527 -1.087500712019401 0.9851745141815483
Ar 0.2300982604567919 2.000258446242115 1.184614353806767
Ar 0.7022296501873969 -0.4958690649141381 1.751838751089437
Ar -0.3372462161832468 0.939744506640752 0.4381292325616177
Ar -1.520204714579587 -0.7866251898008952 1.874133191851397
Ar -0.6778043436536048 0.5866243481499085 -0.5265156025633534
Ar -0.7425970228504744 -0.6457854896282161 1.126861161164003
Ar 0.5545741790862907 0.5621068468174305 0.02564226838808261
Ar 0.2650525016394324 -0.7558388113925014 0.7569784882412975
Ar -0.288550021567055 -0.704103878561476 2.103139340459612
Ar 0.3592881240668757 1.981234195196909 -0.9808499418367642
Ar 1.860290847295106 0.6939143016336135 1.103978310277703
Ar -0.4919840465097051 0.1591475089131898 -1.55470942491689
Ar 0.3299446679425178 -1.515415011368988 1.507817923542193
Ar 0.2220415656440789 0.9176749603594175 -0.974830225412916
Ar -1.947979995361706 0.2522932464679287 1.645628247287093
Ar 1.090708713706656 0.5271534703775894 1.86010000669785
Ar 1.954011891926416 -0.4366057972935994 0.4910185957630248
Ar -0.95054321763771 -1.502134930884575 -0.8101023329933831
Ar -2.164629138124289 0.575926549343312 0.6267034952049826
Ar -0.8079761255720743 -0.4503578875059354 -0.7305486115202668
Ar 1.671902217538734 -0.08597278915808058 -1.70525166415712
Ar -1.474234224667586 0.04620209050413188 -0.05953238481824936
Ar -0.5462082306228977 1.65174151956234 -0.4129111741378289
Ar -0.03240321849889743 0.1625104959476091 1.222630667867223
Ar -2.222529512107461 0.7240888033068728 -0.4686055823268102
Ar -0.4763263198000411 1.116257418102607 1.492364157396879
Ar 0.6697825495887901 -1.711617901814535 -0.7169578765176459
Ar -2.823155110194919 -0.1923732327712528 1.082256525340729
Ar 0.176595158206203 -0.1189126797539547 -0.7191593559988171
Ar -2.448776770124407 -1.212655242570784 1.314397098793056
Ar 0.1092563857643127 0.321646865352258 2.286178924719367
Ar 1.912219333980898 -0.4164919647203402 -0.6069310723156368
Ar -2.160023558156235 -2.230778043782244 0.8452894703792031
Ar -1.098676103771804 -0.9552623321558855 0.140104230324538
Ar 1.640471768099221 0.4955774434034592 0.05484937739425857
Ar -0.07783273117069758 -0.9464255839758439 -1.364990110985916
75
algorithm=ssw_guard_v7 size=75 seed=0 index=3 energy=-376.9883931468693 entry_id=3 visits=3
Ar 0.4687835058033334 -0.2817459051361578 1.620300941572779
Ar -0.5822107213345438 -0.2180488612216662 0.22057368068363
Ar 1.232597895328898 -0.768582515855197 2.204606028264541
Ar -2.23839374498325 0.4866069296354213 1.247226831010711
Ar 0.07954169292108441 1.818633928450896 1.5779064943459
Ar -0.3640432303929609 -2.499141355266384 -1.335962346046106
Ar 2.09936441563793 0.02536192318727883 0.6486220931623311
Ar 1.203666905503141 0.6821349953623578 0.6612593197996548
Ar -2.236224728470423 0.4527318438712069 0.1276385864286301
Ar -0.2308242488455014 0.3592476505367451 2.192773163977867
Ar -1.641745133209688 -0.4689988638025847 1.323366268004369
Ar 0.03750895296712028 -0.7353875857823303 -1.093310409587218
Ar 0.136700850239914 -0.631010342515861 2.584948773011909
Ar 0.3328093373200953 1.308040010659521 0.6722786287104446
Ar -0.1375956695941486 0.1045989807475735 -1.786966563256721
Ar 0.04717043708771932 1.720521729703984 -0.2880338188728971
Ar -0.8656776749059011 -0.7566892372931506 -1.77218040962414
Ar -0.6169012803367377 1.831601330095032 0.6642556258317449
Ar 0.3631332860855969 -1.762970765747978 -0.8067663994545961
Ar -0.6373766869687925 1.086242701627663 -1.878932002763532
Ar -0.686604941304529 -1.532538062478979 -1.02848302655462
Ar -1.316914110996447 -1.460427295695785 -0.1567544639116537
Ar 0.5411024012002517 0.7217747654158045 -0.2058924639438401
Ar -0.9441522067486331 -0.5358815545541691 2.256073676956748
Ar 1.484243628846117 0.1432345062290371 1.583334210137308
Ar -2.36933864047651 -1.127459833807093 -0.2455782984843576
Ar -1.730338885153407 -1.237884971510035 -1.168393561737377
Ar -0.02421424971604496 -1.53177176848196 -1.870454000167018
Ar -0.2849722095249645 0.2515324904103517 -0.7256791120820552
Ar -0.0741228078856473 -1.8581203759742 0.7436655376645216
Ar -1.947625608289702 0.9645486655851238 -0.8935726596264417
Ar 1.346854516167064 1.009540366169508 -0.860518410063528
Ar 0.7497225518826737 0.1035233949865444 -1.110831669794228
Ar -2.040468723991049 -0.2153907045050286 -0.7961662875336664
Ar -1.45779633388315 1.362889542961572 1.251395349595669
Ar -0.9105938419807411 -1.105190274982745 0.7984107460960487
Ar 0.8447274490206472 0.2406525161978339 2.508484216600919
Ar 0.598528340186209 0.817382927966122 1.600365923245678
Ar 1.431017990625993 0.06484279155053523 -0.2394613657575783
Ar 2.089561752010436 1.010603296914167 1.181111720361429
Ar 1.809365259980841 -0.9270818563604052 0.1115157825529839
Ar -0.5797011689095175 -0.1887133966711012 1.308474350884387
Ar -0.5025445379152741 -2.250118024323927 -0.2304476940713719
Ar -1.292312355021552 0.409845090298367 0.7435597696309671
Ar -0.2684997467523543 -1.189187423646702 -0.124429764889119
Ar 0.2247297967677575 0.2571192268200401 0.7264551095111818
Ar 0.4282703972242108 -0.3539701546112243 -0.1551830762234524
Ar 0.7912845784567861 -1.37181331428791 0.1701956447932545
Ar -0.7627799576340927 1.370199909266781 2.174057386919823
Ar 1.869876493844577 -0.8746509990103528 1.276214647266647
Ar -1.484807902427804 1.328138848464758 0.1309036042999622
Ar 1.109549040361 -0.9042636441683407 -0.7836226937994748
Ar -0.4651300061583248 0.8922261554902687 1.257761084095575
Ar -1.159631372275808 -2.167146585591949 0.6595729076003239
Ar 1.086721761454212 -0.3982556111618736 0.7106140658515725
Ar 2.036593805606433 0.9647915038178214 0.0325678547588364
Ar -1.1830559199844 0.2578702896609869 -1.395452292702205
Ar -1.966571904503972 -1.385888326937946 0.7599684162557586
Ar -1.275500625276461 0.3756894141019121 -0.3299852009062387
Ar 0.4243189460064859 2.360493323038824 0.6030909587639149
Ar -1.617329800238615 -0.4877057045978778 0.2117156931396597
Ar -1.295538916677104 0.4446191890860497 1.854975739005764
Ar 0.1114969349406407 -0.8024649481788338 0.7714180672532329
Ar -2.579045251444887 -0.4481368859756452 0.6916549046906904
Ar -0.2321662975340489 -1.19337189965771 1.69887222606547
Ar 0.238273920314018 1.084368422568967 -1.193893432296464
Ar -2.091243307764097 -2.19818896735473 0.001965924128554987
Ar -0.4810095963277066 0.8650565436372011 0.1635740322712791
Ar -1.423936745062991 -2.299784497080085 -0.8912619010127754
Ar 0.8493788781377677 -1.327687021315785 1.320392772191763
Ar 1.141244300429285 1.630472122547935 0.04586342953592334
Ar -1.139814159832978 -1.865458597836092 -1.931234439308127
Ar -0.9929790306244308 -0.5757316791519698 -0.7025412702722781
Ar 1.190870998833005 1.68216547154587 1.186561871259802
Ar -0.8228404223723241 1.229621855614172 -0.8077653924705526
75
algorithm=ssw_guard_v7 size=75 seed=0 index=4 energy=-376.0529049788233 entry_id=4 visits=4
Ar -0.2190024845194021 0.287511467809622 1.749207053519644
Ar -0.5073619478990826 -0.4211868881331686 0.1695046767194897
Ar 0.4222913140929321 0.4845241164685146 2.596805750000979
Ar -2.429774341894607 -1.070073386271287 0.5812673973782285
Ar -1.848214066509813 1.536188987548853 1.102822871272843
Ar 1.661673014040639 -1.916613774817437 -0.6873272688053641
Ar 1.005446578357237 1.630914622010379 1.132100922021204
Ar -0.03662864694087287 1.472868395479094 0.7789189706584435
Ar -2.032708622033231 -1.101319471758874 -0.4636681922920685
Ar -1.297081028573205 0.2581847679975606 1.976549344400006
Ar -1.428239845007873 -1.326318242621325 1.025620338977476
Ar 0.6912041981957442 -0.3745936027446876 -0.7971964338996699
Ar -0.529293865589441 -0.1868984250983876 2.666549342244312
Ar -1.043609484246956 1.313729863479515 0.4374343752408394
Ar 0.255689405609731 0.09244842408344302 -1.696574871027592
Ar -1.181798999968387 1.395163429539012 -0.6357623743611359
Ar 0.3251515142983865 -1.03198579400082 -1.640533940723286
Ar -2.02478273896594 1.026882421806421 0.07077786436372437
Ar 1.490885886398321 -0.8753672832288321 -0.2020188572280872
Ar -0.695080768585827 0.4423169153690868 -2.138241806555968
Ar 0.7054112562018758 -1.449724524213385 -0.7089930897735059
Ar -0.06053288261811371 -1.82803824872738 -0.05109756994891329
Ar -0.224328651201391 1.028552901801478 -0.2001863306115607
Ar -1.226140667212904 -0.875803718709827 2.080713259767281
Ar 0.2017120824606185 1.298993153131784 1.843255221058414
Ar -0.9587163744180187 -2.329187685486982 -0.4582959002215634
Ar -0.1454777737010599 -1.972790884626723 -1.15369669300798
Ar 1.434624379358269 -0.9954471730745399 -1.348942509403508
Ar -0.2979308017338881 0.1095124087112889 -0.7670164018129997
Ar 0.7426795215061855 -1.222540575376177 1.181465278287585
Ar -1.827187266797618 -0.5497884172197074 -1.48682544897775
Ar 0.3523648123972312 1.789593440416842 -0.7020683095929784
Ar 0.6271248619964478 0.7224465491828016 -0.8554674478064743
Ar -1.151618596884203 -1.455275606671428 -1.124253061542603
Ar -2.488848940363213 0.09316642688576443 0.5244183474765487
Ar -0.3409480486835918 -1.275927402082672 0.8542849173800457
Ar -0.6015968563280829 0.9344418168034594 2.547292931595137
Ar -0.846185774502611 1.166095402079263 1.493575699788547
Ar 0.8200479518324801 1.183187773347134 0.1307574371838525
Ar 0.1751486716471554 2.334817457979088 1.393100640134729
Ar 1.612328242645393 0.7504612590490284 0.7788863776781477
Ar -0.8930827867643678 -0.3811401594806951 1.187589212881041
Ar 1.033766538890227 -1.819673503572419 0.2612407781764409
Ar -1.573676214622392 -0.46126801866051 0.3457067788386429
Ar 0.4567388652965018 -0.8999249595442141 0.1542225437931068
Ar -0.4501639944681859 0.4885457374167405 0.7216548150415685
Ar 0.3881430465713702 0.1849718334356214 0.08274779253142708
Ar 1.187806818351657 -0.2827334357758118 0.7110856976333315
Ar 1.853621278378952 -0.01638133794440299 1.543806322229479
Ar 1.228101531208292 0.8366639524363291 1.891255768820801
Ar -2.099073183703016 0.05037351930015149 -0.5146423066884417
Ar 1.421998420971158 0.2601209419620398 -0.2218054047418642
Ar -1.529758821989098 0.477637729099015 0.9200277565498198
Ar 0.2373865451555664 -2.206065812706331 0.9286631932341209
Ar 0.5798948192343488 0.6197604160328368 1.06116421482285
Ar 0.550091955206943 2.251696168501995 0.3105463055370385
Ar -0.6813067974679773 -0.5249925786604973 -1.607091365755052
Ar -0.8555619791664212 -2.216573804460327 0.6450929233560911
Ar -1.179400053272204 -0.4905528456009007 -0.6538141458793678
Ar -1.639960603461442 2.133253678088733 0.1272580638790115
Ar -1.026228923366981 -1.338765074601523 -0.01132644055467835
Ar -1.977736142455349 -0.4211882554669276 1.38230478149837
Ar 0.1574654093437408 -0.3455538365080692 0.9910141748842322
Ar -1.86091290231183 -1.979947811640705 0.2071098199695014
Ar -0.1300566696625358 -0.8589468757525246 1.877563677649418
Ar -0.3323424987267939 1.064417864417746 -1.290739843190912
Ar -0.1502890999046747 -2.893852658563222 0.1037458013289379
Ar -1.13420730387671 0.4207009762554824 -0.1191235735091173
Ar 0.6658779413209692 -2.511441888411571 -0.5609618708506894
Ar 0.8031709899076499 -0.2034391488800125 1.815979851712037
Ar -0.4951375748945765 2.099665749950132 -0.0466610293430758
Ar 0.9219858951863309 -2.017106891354808 -1.58197016635566
Ar -0.2394978150654929 -0.9773475599351342 -0.7069896850088668
Ar -0.8727721235154472 2.191604108295206 1.02308672892453
Ar -1.271998485516411 0.430580664820347 -1.206239642462362
75
algorithm=ssw_guard_v7 size=75 seed=0 index=5 energy=-376.0256844654454 entry_id=5 visits=2
Ar -0.02537715567672827 0.7787332912009928 1.4482053067654
Ar -0.5835408948349111 -0.3238729357055352 0.2009969307414514
Ar 0.763770007206037 1.189225582191123 2.057561950147742
Ar -2.313129576192992 -0.8905955450436662 1.188593695201595
Ar 0.06591655369991956 -0.509569262920826 2.865199349041545
Ar 1.483703154948941 -1.977633806607328 -0.6273176516969747
Ar 0.9447776925223619 1.924725260820734 0.243555740275917
Ar -0.1468320262630818 1.670973649306368 0.1760207381020686
Ar -2.1367559509784 -1.201551575657319 0.1289016353388146
Ar -0.1209169120294861 0.5478796324870866 2.502923919295376
Ar -1.227682409674953 -0.9820745730305158 1.456791579915168
Ar 0.3959717734003805 -0.5442799849958841 -0.9652193154767527
Ar 0.9130655715016417 0.1567782893215794 2.477646973740325
Ar -1.229839068071891 1.459813163699321 0.1318233327373486
Ar -0.2432420200328438 -0.359365393684336 -1.842548719754679
Ar -1.534196319855878 1.167838027221733 -0.8886944381728278
Ar -0.07681428521189891 -1.421554352280907 -1.494792364384133
Ar -2.215192407186987 0.9534034716464673 0.04318862097983855
Ar 1.335760996087931 -0.8453987434556913 -0.4365127855832506
Ar -1.287619212368329 -0.156559376790655 -2.139062240374755
Ar 0.5104463148033853 -1.551566415281086 -0.5861869626851722
Ar -0.07463118940402358 -1.739575033651699 0.2984448420628721
Ar -0.4942695241163553 0.9651046332846162 -0.5798870025602305
Ar -0.3000405165308776 -1.24403443279654 2.05329287165141
Ar 0.333338140622814 1.783895485045308 1.182268847547898
Ar -0.987033348178916 -2.352704966511439 0.2486522797723392
Ar -0.3693832635741479 -2.190371211331409 -0.6799757459059388
Ar 1.0635897616167 -1.28793067891785 -1.463926222504601
Ar -0.6056537161804817 -0.08141875668884228 -0.860921891676531
Ar 0.8965205595509358 -0.7831298710169735 1.11637365139229
Ar -2.18449476278058 -0.95729513740913 -1.027548065926923
Ar -0.06490436012732877 1.548982292185922 -1.392273624341658
Ar 0.23581233934853 0.4913076384130531 -1.303720129049049
Ar -1.382896593845371 -1.704753326338426 -0.5795726329507156
Ar -2.48985466982825 0.1939008682020633 0.8376703079926485
Ar -0.2196000253157905 -0.9459680207401793 1.016823674567904
Ar -0.2742865205469026 1.598750672708209 2.123227395545114
Ar -1.030224997789793 0.7879136230578928 1.905527673201657
Ar 0.5885147944585052 1.216279823290306 -0.5414042993302429
Ar 0.1480783097498115 2.662449964124874 0.4837384119644482
Ar 1.525595225794999 0.9915319067040985 0.01423936314849492
Ar -0.7555350336399604 -0.01790529145150099 1.232554342152407
Ar 1.037767981468914 -1.62304436130569 0.3696076422242482
Ar -1.580602180269333 -0.3452470339174761 0.6149702888418651
Ar 0.3962969618688364 -0.7778536821193616 0.1148208851331205
Ar -0.4963659562058289 0.7103603545689334 0.4720470960007638
Ar 0.2284983334159726 0.2430311181075931 -0.2335582093233234
Ar 1.174958266161402 -0.02121085558383227 0.3145096544193123
Ar 1.984338564293193 0.4659778483808413 0.8789592570169311
Ar 1.372803499454494 1.366382582946684 1.119457940288385
Ar -2.312531348932697 -0.1265745070868723 -0.215842907329434
Ar 1.17527529053604 0.2392708249849068 -0.7557838548027088
Ar -1.505396496241517 0.7216164067813733 0.8969416487716826
Ar 0.4174456589605705 -1.781019824696455 1.292003636586688
Ar 0.5783932448099102 0.9377367518120301 0.5301698198621521
Ar 0.301641210264275 2.284380495067817 -0.6041037069164168
Ar -1.092560871675347 -0.9420051638243211 -1.389109606576073
Ar -0.6829896525729711 -1.917833343226539 1.229554449258444
Ar -1.394008295509571 -0.6422510470166437 -0.4005271214816595
Ar -0.8521362138983556 -0.2821659224349379 2.271200845401192
Ar -1.050771045287718 -1.275123920557722 0.3982057951990124
Ar -1.766352836314084 -0.03238744443276136 1.668324995852477
Ar 0.2237051707247398 -0.009716573154326228 0.7992346922292701
Ar -1.76368905241635 -1.850649568315643 0.9617927676648002
Ar 0.1600240293913179 -0.2730082440485557 1.81240640504587
Ar -0.8123719882021181 0.6899913987995306 -1.597472205568036
Ar -0.03285847263960053 -2.702248232388821 0.7808650722628647
Ar -1.315719040875478 0.3938327661028321 -0.1482197980504001
Ar 0.5783820598985602 -2.528749148382566 -0.145432193900014
Ar 1.021382622998495 0.3436550993241195 1.393308436661871
Ar -0.7791436966433043 2.016862309213636 -0.6915816927806969
Ar 0.5940614935056476 -2.341096343694563 -1.292937413870882
Ar -0.4478136925399798 -1.109514516422363 -0.5151492406865211
Ar -0.7520598428218366 1.543560357334207 1.120606161288038
Ar -1.671645921945159 0.08478743559640463 -1.1420184060757
75
algorithm=ssw_guard_v7 size=75 seed=0 index=6 energy=-377.2185390783849 entry_id=6 visits=5
Ar -0.168907892710413 1.389938883810261 0.4709148069713199
Ar -0.5760894233003209 -0.3164782215420054 0.3839813240461227
Ar 0.570331304677192 2.174281461440528 0.4465595805243353
Ar -1.943041625030226 -0.2813685017176664 1.93701791371197
Ar 0.4471949935645012 1.385833131294959 2.284574517665143
Ar 1.750620766119525 -1.812938257269092 0.2252382139594606
Ar 0.289455213242847 1.545380083842661 -1.397954566175762
Ar -0.6981524408082719 1.215343210408966 -1.003527043582328
Ar -1.826656420641072 -1.195787757296043 1.302495303735272
Ar -0.05495973246174397 1.909538705187232 1.416353470416021
Ar -0.8480211746103733 -0.04299536048150646 1.892968771046394
Ar 0.2685636254112869 -1.140970764933338 -0.6051513534867495
Ar 1.033996410330067 1.706636707935304 1.355077677994993
Ar -1.675116266582975 0.8823871421220253 -0.5966027493981335
Ar -0.5028656928875358 -1.669244478735089 -1.184886709305873
Ar -2.025491300455533 -0.05003741226407388 -1.07652271109861
Ar -0.005332786455755501 -2.195169797362618 -0.3163713029422608
Ar -2.491354199267292 0.3324850111421955 -0.0743931101755097
Ar 1.312334950035629 -0.8917712243997606 -0.2998297294101677
Ar -1.593664151614546 -1.831740403798712 -1.238249203876148
Ar 0.7070451157731297 -1.609795690849862 0.265141252771943
Ar 0.3121360444676479 -1.23253208438814 1.192944890125734
Ar -0.9361605571962526 0.1306771402098343 -1.016094563581256
Ar 0.1866885243805475 0.2664555904306197 2.240650393635313
Ar -0.111811470422859 1.995132402624726 -0.4399662038656325
Ar -0.40016707957581 -1.82776624455891 1.786691079414318
Ar 0.03273282924871555 -2.249720811099234 0.8362821412173457
Ar 1.048646220666913 -1.934957126233636 -0.6958848330804965
Ar -0.8020767363900697 -0.849609174264111 -0.5415982912309373
Ar 1.069787835522776 0.1340660748852858 0.9426996591172707
Ar -2.088403759971845 -1.790638545988789 0.3143840293504855
Ar -0.7934361243853435 0.04603827106586581 -2.093048810453287
Ar -0.2118008940104898 -0.628403354786321 -1.452062422622137
Ar -1.059045096451429 -1.948853107543699 0.8861905815046687
Ar -2.448109835963908 0.2680449532180782 1.055296509495059
Ar 0.04497003459073454 -0.1904257383461218 1.270661273167355
Ar -0.5245005461604165 2.416807730628167 0.5298484203826129
Ar -1.069922081510186 1.587540945261935 1.077508581032934
Ar 0.03835877108953789 0.4544039530832922 -1.435490601207942
Ar 1.903781926565629 -0.1433873241779602 0.2804334000422684