115
Lattice="13.75323 0.0 0.0 0.0 13.75323 0.0 0.0 0.0 23.89" Properties=species:S:1:pos:R:3 entry_id=12 rank=21 energy=-572.362060546875 parent_id=11 pbc="T T F"
Pd       0.00000000       0.00000000      10.00000000
Pd       2.75064538       0.00000000      10.00000000
Pd       5.50129076       0.00000000      10.00000000
Pd       8.25193614       0.00000000      10.00000000
Pd      11.00258152       0.00000000      10.00000000
Pd       0.00000000       2.75064538      10.00000000
Pd       2.75064538       2.75064538      10.00000000
Pd       5.50129076       2.75064538      10.00000000
Pd       8.25193614       2.75064538      10.00000000
Pd      11.00258152       2.75064538      10.00000000
Pd       0.00000000       5.50129076      10.00000000
Pd       2.75064538       5.50129076      10.00000000
Pd       5.50129076       5.50129076      10.00000000
Pd       8.25193614       5.50129076      10.00000000
Pd      11.00258152       5.50129076      10.00000000
Pd       0.00000000       8.25193614      10.00000000
Pd       2.75064538       8.25193614      10.00000000
Pd       5.50129076       8.25193614      10.00000000
Pd       8.25193614       8.25193614      10.00000000
Pd      11.00258152       8.25193614      10.00000000
Pd       0.00000000      11.00258152      10.00000000
Pd       2.75064538      11.00258152      10.00000000
Pd       5.50129076      11.00258152      10.00000000
Pd       8.25193614      11.00258152      10.00000000
Pd      11.00258152      11.00258152      10.00000000
Pd       1.36864911       1.42011861      11.98144049
Pd       4.08809861       1.39812753      11.94575545
Pd       6.83473675       1.37201075      11.94991161
Pd       9.57512057       1.39592898      11.89594876
Pd      12.38684272       1.37174114      11.92044161
Pd       1.34946915       4.12196781      11.96852993
Pd       4.09441429       4.14005068      11.95881282
Pd       6.82234271       4.13165777      11.98163968
Pd       9.56728621       4.13975942      11.94281254
Pd      12.36578195       4.13265160      11.93417299
Pd       1.37110082       6.89256210      11.94010419
Pd       4.13935064       6.87026939      11.96482277
Pd       6.87097415       6.85831372      11.95140951
Pd       9.64205429       6.82915781      11.94515418
Pd      12.39111484       6.85622887      11.94896407
Pd       1.37262395       9.65495017      11.99437474
Pd       4.11777592       9.66324146      11.95099537
Pd       6.89476706       9.64088005      11.95142944
Pd       9.64982872       9.59779534      11.89439304
Pd      12.42487279       9.60955999      11.94161946
Pd       1.40926237      12.40303758      11.99065880
Pd       4.12813554      12.39431175      11.96424876
Pd       6.86816975      12.39901143      11.97280504
Pd       9.63028672      12.36702810      11.91406436
Pd      12.42201626      12.33358592      12.00330201
Pd       0.08406583       0.04703867      13.93056447
Pd       2.78041429       0.06603909      14.02217571
Pd       5.55770853      13.73983850      14.00486514
Pd       8.22540689      13.70053457      13.95828811
Pd      10.98731161       0.10784410      13.85809610
Pd      13.55709437       2.74395039      14.07816966
Pd       2.55813413       2.84670152      14.05683590
Pd       5.43190489       2.79916005      13.93769224
Pd       8.14995512       2.72974439      13.91090498
Pd      10.87389938       2.76752000      13.89343654
Pd       0.05440610       5.47856404      13.93170871
Pd       2.77699041       5.56902852      13.90074020
Pd       5.56933944       5.51772423      14.07300518
Pd       8.30751999       5.48048950      13.94728876
Pd      11.06009908       5.44723435      13.99798085
Pd      13.64976115       8.24394935      13.98232978
Pd       2.71013976       8.29944784      13.96073300
Pd       5.48893206       8.24210440      14.00584738
Pd       8.20784506       8.20399950      13.94219109
Pd      10.92899805       8.15099184      14.09050827
Pd       0.09807174      11.04476708      14.14244347
Pd       2.83771472      11.06997492      14.01872197
Pd       5.52655859      10.98403829      13.92111665
Pd       6.90252978      11.29061971      16.65460625
Pd       8.22015552      10.97651372      13.95494896
Pd      12.73596157       6.59329543      16.16853594
Pd       8.89596083       9.18800248      16.34364004
Pd       2.08321287      12.95351204      16.54869661
Pd       1.48150999       5.62243217      16.33188935
Pd      11.17188962      10.83526331      13.95740585
Pd       9.28533442       1.38976530      15.83640697
Pd       4.66987138       1.63507915      17.03772254
Pd       5.21957028       9.05686955      16.64470768
Pd       4.72165937      12.80528551      16.44504874
Pd       9.88688073      12.45634996      16.51476924
Pd       1.21713662       2.03425986      16.73909159
Pd       4.06883740       4.17764627      16.18882099
Pd      11.43865126       3.07462546      16.62018329
Pd       1.26065767       9.17692610      16.11895340
Pd       6.88233823       6.47639270      16.67355426
Pd       7.26226779       0.25390159      17.26616094
Pd       9.97575614       6.58319055      16.61353561
Pd       7.64558509       3.59456432      16.60178181
Pd      12.92233529      13.32278918      16.35973635
Pd       3.83750283       6.90538802      15.93516722
O        9.49195914       2.92488746      17.11111423
O        9.63190648      10.74658269      15.44831966
O       11.46130118      12.53491503      15.33847292
O       11.61412068       1.04758970      17.31148648
O       10.32863729       0.47721264      17.46403411
O        5.22453013       7.28512598      17.39997984
O        4.26769616       1.39547970      14.94704857
O        0.52537028       0.31060382      17.45853666
O        8.25125992      12.32063900      17.62613098
O        1.61996293      11.10278130      15.71270299
O        2.84186179       0.96325880      17.28177568
O        2.16565986       3.72651953      16.12032226
O        8.40578035       5.35827646      15.99484404
O        8.43526519       7.62781735      17.37016007
O        5.94673764       4.70931119      16.12992536
O       13.34618643       3.04124871      16.08068229
O       11.30046749       5.17155481      16.06409814
O        0.68901660       7.40466359      16.74327738
O        6.55816008       2.07860513      17.34637124
O        5.09610180      10.85329570      15.93097350
