115
Lattice="13.75323 0.0 0.0 0.0 13.75323 0.0 0.0 0.0 23.89" Properties=species:S:1:pos:R:3 entry_id=27 rank=20 energy=-572.6475830078125 parent_id=26 pbc="T T F"
Pd       0.00000000       0.00000000      10.00000000
Pd       2.75064538       0.00000000      10.00000000
Pd       5.50129076       0.00000000      10.00000000
Pd       8.25193614       0.00000000      10.00000000
Pd      11.00258152       0.00000000      10.00000000
Pd       0.00000000       2.75064538      10.00000000
Pd       2.75064538       2.75064538      10.00000000
Pd       5.50129076       2.75064538      10.00000000
Pd       8.25193614       2.75064538      10.00000000
Pd      11.00258152       2.75064538      10.00000000
Pd       0.00000000       5.50129076      10.00000000
Pd       2.75064538       5.50129076      10.00000000
Pd       5.50129076       5.50129076      10.00000000
Pd       8.25193614       5.50129076      10.00000000
Pd      11.00258152       5.50129076      10.00000000
Pd       0.00000000       8.25193614      10.00000000
Pd       2.75064538       8.25193614      10.00000000
Pd       5.50129076       8.25193614      10.00000000
Pd       8.25193614       8.25193614      10.00000000
Pd      11.00258152       8.25193614      10.00000000
Pd       0.00000000      11.00258152      10.00000000
Pd       2.75064538      11.00258152      10.00000000
Pd       5.50129076      11.00258152      10.00000000
Pd       8.25193614      11.00258152      10.00000000
Pd      11.00258152      11.00258152      10.00000000
Pd       1.36114790       1.41523755      11.97137421
Pd       4.10895970       1.40012507      11.93784098
Pd       6.82954161       1.38538189      11.94280703
Pd       9.57512057       1.39592898      11.89594876
Pd      12.38684272       1.37174114      11.92044161
Pd       1.38273395       4.11308312      12.00859324
Pd       4.12397086       4.12858541      11.98168547
Pd       6.83659164       4.12757895      11.97474650
Pd       9.56728621       4.13975942      11.94281254
Pd      12.36578195       4.13265160      11.93417299
Pd       1.37110082       6.89256210      11.94010419
Pd       4.13935064       6.87026939      11.96482277
Pd       6.87097415       6.85831372      11.95140951
Pd       9.64205429       6.82915781      11.94515418
Pd      12.39111484       6.85622887      11.94896407
Pd       1.39747295       9.66033757      12.02659259
Pd       4.11777592       9.66324146      11.95099537
Pd       6.89476706       9.64088005      11.95142944
Pd       9.64982872       9.59779534      11.89439304
Pd      12.42487279       9.60955999      11.94161946
Pd       1.39084362      12.39052616      11.99313361
Pd       4.09638463      12.39301927      11.93679660
Pd       6.86816975      12.39901143      11.97280504
Pd       9.63028672      12.36702810      11.91406436
Pd      12.39398703      12.33199193      11.98438871
Pd      13.74022471       0.06795640      13.92193636
Pd       2.64765841       0.00883658      13.98897823
Pd       5.44244204      13.70572975      13.95274991
Pd       8.23799592      13.74204564      13.88220348
Pd      11.00449801       0.04632800      13.90304331
Pd      13.69981821       2.77004857      14.09491295
Pd       2.73149261       2.77984398      14.04960465
Pd       5.58095552       2.67491681      14.06421549
Pd       8.23303235       2.77329096      13.88536263
Pd      10.98942990       2.75376513      13.84293738
Pd       0.09436086       5.48902622      13.95783638
Pd       2.79349677       5.51210302      13.98637007
Pd       5.58473827       5.54555696      14.03315331
Pd       8.32155882       5.52633799      13.96389936
Pd      11.08961603       5.44135310      13.99349760
Pd      13.66489638       8.25270816      13.97700967
Pd       2.68006331       8.28635871      14.03895036
Pd       5.43952845       8.25546429      13.96752725
Pd       8.21150156       8.22633066      13.95248030
Pd      10.94204406       8.15008181      14.08656170
Pd       0.10998818      11.08175598      14.05902218
Pd       2.83569905      11.02870688      14.12094172
Pd       5.47911982      11.01592868      13.85266698
Pd       6.70555818       9.76459333      15.79071428
Pd       8.20521437      11.00331727      13.89172537
Pd      12.69991248       6.62192033      16.13207355
Pd       9.16635569       9.03908193      16.41129397
Pd       2.17103398      12.95812868      16.66515661
Pd       1.52003191       5.81732839      16.47484263
Pd      11.14542730      10.83978873      14.01434272
Pd       9.48617394       1.53066787      15.74993246
Pd       4.72136837       1.66117804      17.30909241
Pd       4.05507431       9.69135024      16.47037421
Pd       5.65704088      12.17852826      16.36788256
Pd       9.46732970      12.55881294      16.33248006
Pd       1.33582439       2.14153629      16.83930729
Pd       3.96849422       4.07621589      16.29095795
Pd      11.53074374       3.06437926      16.62413187
Pd       0.99671479       9.51778003      16.13602706
Pd       6.62744463       7.66986190      17.29409218
Pd       6.95711862       0.80692986      16.03376174
Pd       9.88184641       6.36330727      16.63637474
Pd       7.62250543       3.65964305      16.58505448
Pd      12.85754907      13.19379333      16.41891808
Pd       4.04044511       6.83206881      15.91458156
O        9.53727905       3.03097201      17.11537370
O        9.51527460      10.70112934      15.44602683
O       11.29603534      12.46169397      15.48707223
O       11.61710110       0.95014174      17.24840167
O       10.25638108       0.50346674      17.38047621
O        4.70102752       8.02284998      17.34528768
O        4.00769971       1.28266301      14.84492711
O        0.62355718       0.28660160      17.23697690
O        7.49721235      12.77950356      16.88716518
O        0.67411222      11.53503285      16.05516468
O        2.93474080       0.99147731      17.42125800
O        2.16292807       4.00346279      16.97146129
O        8.27595182       5.37834756      15.93677640
O        8.60000738       7.55757699      17.52249204
O        5.81710904       4.15088095      15.61329249
O       13.45139737       3.01570990      16.08410313
O       11.34022859       5.11867017      16.06194116
O        0.62342882       7.60899353      16.52962152
O        6.60042373       2.17468401      17.46803904
O        3.70103576      11.66616205      16.08750082
