115
Lattice="13.75323 0.0 0.0 0.0 13.75323 0.0 0.0 0.0 23.89" Properties=species:S:1:pos:R:3 entry_id=28 rank=3 energy=-573.6929931640625 parent_id=27 pbc="T T F"
Pd       0.00000000       0.00000000      10.00000000
Pd       2.75064538       0.00000000      10.00000000
Pd       5.50129076       0.00000000      10.00000000
Pd       8.25193614       0.00000000      10.00000000
Pd      11.00258152       0.00000000      10.00000000
Pd       0.00000000       2.75064538      10.00000000
Pd       2.75064538       2.75064538      10.00000000
Pd       5.50129076       2.75064538      10.00000000
Pd       8.25193614       2.75064538      10.00000000
Pd      11.00258152       2.75064538      10.00000000
Pd       0.00000000       5.50129076      10.00000000
Pd       2.75064538       5.50129076      10.00000000
Pd       5.50129076       5.50129076      10.00000000
Pd       8.25193614       5.50129076      10.00000000
Pd      11.00258152       5.50129076      10.00000000
Pd       0.00000000       8.25193614      10.00000000
Pd       2.75064538       8.25193614      10.00000000
Pd       5.50129076       8.25193614      10.00000000
Pd       8.25193614       8.25193614      10.00000000
Pd      11.00258152       8.25193614      10.00000000
Pd       0.00000000      11.00258152      10.00000000
Pd       2.75064538      11.00258152      10.00000000
Pd       5.50129076      11.00258152      10.00000000
Pd       8.25193614      11.00258152      10.00000000
Pd      11.00258152      11.00258152      10.00000000
Pd       1.36650552       1.40837359      11.96105886
Pd       4.13024362       1.39679499      11.92412134
Pd       6.86625511       1.38259593      11.96495077
Pd       9.57512057       1.39592898      11.89594876
Pd      12.38684272       1.37174114      11.92044161
Pd       1.39741769       4.13592270      12.00077024
Pd       4.12823843       4.14534296      11.98702214
Pd       6.86118575       4.11780368      11.99677485
Pd       9.56728621       4.13975942      11.94281254
Pd      12.36578195       4.13265160      11.93417299
Pd       1.37110082       6.89256210      11.94010419
Pd       4.13935064       6.87026939      11.96482277
Pd       6.87097415       6.85831372      11.95140951
Pd       9.64205429       6.82915781      11.94515418
Pd      12.39111484       6.85622887      11.94896407
Pd       1.38184712       9.64005836      11.97399010
Pd       4.11777592       9.66324146      11.95099537
Pd       6.89476706       9.64088005      11.95142944
Pd       9.64982872       9.59779534      11.89439304
Pd      12.42487279       9.60955999      11.94161946
Pd       1.38213649      12.39504661      11.99074644
Pd       4.12178220      12.37506364      11.95097633
Pd       6.86816975      12.39901143      11.97280504
Pd       9.63028672      12.36702810      11.91406436
Pd      12.38542436      12.37215417      12.00185155
Pd       0.02018880       0.03715407      13.98578323
Pd       2.75157425       0.01467128      13.92415216
Pd       5.47985398      13.70611693      13.98865959
Pd       8.24372694      13.70450825      13.88528485
Pd      10.92881424      13.73015537      13.93070713
Pd      13.69627647       2.78150854      13.96366582
Pd       2.73192955       2.78919768      14.04201065
Pd       5.60134626       2.69377034      13.95695543
Pd       8.33203728       2.71850914      14.06198896
Pd      10.99158483       2.69127157      13.96186630
Pd       0.05843352       5.50296152      13.97752908
Pd       2.73985383       5.52157750      14.04402438
Pd       5.51117663       5.64996991      14.02198435
Pd       8.27127246       5.48517040      13.95149553
Pd      11.03295174       5.42366175      13.93027391
Pd      13.68573639       8.23240736      13.96200061
Pd       2.70472527       8.25735309      13.96309172
Pd       5.47134933       8.35692962      13.98768795
Pd       8.23960009       8.24297548      13.99605362
Pd      10.97449192       8.18035764      14.07441836
Pd      13.71031017      11.02958433      14.00844614
Pd       2.82618942      11.00938447      14.01582306
Pd       5.52458932      11.05784867      13.95804682
Pd       6.93638597      10.01330689      15.96788912
Pd       8.28017872      10.96765708      13.86158431
Pd      12.73265221       6.70721145      16.16343565
Pd       9.53640326       9.33262758      16.32271867
Pd       2.10826306      12.86087101      16.45599989
Pd       1.49790935       5.76125230      16.67177268
Pd      11.02878072      10.92759518      13.95648024
Pd       9.51837139       1.84785845      16.66601629
Pd       4.50867464       1.50980035      17.09900129
Pd       4.14175712       9.81158767      16.17879079
Pd       5.55045328      12.41645476      16.60391384
Pd       8.93688069      12.07198468      16.26354930
Pd       1.31275390       2.19036265      16.60424406
Pd       3.78186774       4.10750348      16.34106016
Pd      11.72640727       3.38894133      16.66689123
Pd       1.21908459       9.27257292      16.10073906
Pd       6.68681567       7.21947254      16.33091849
Pd       7.09100999       1.09092281      15.88612901
Pd       9.89137105       6.57738383      16.42588354
Pd       7.22030560       3.87160632      16.59939372
Pd      12.26898747       0.17055033      16.20946166
Pd       3.93274182       6.93075503      15.97585739
O        8.90724759       3.48739417      17.44869969
O       10.53164783      10.95881782      15.90969828
O       10.28812541       0.06974143      16.01123434
O       12.02959579       1.68119370      17.72009318
O       10.80534452       1.48330812      18.31331287
O        5.09643710       8.22175978      17.00727696
O        4.07008367       1.35381958      14.92543323
O        0.49112327       0.34111484      16.07605705
O        7.36783746      13.08333841      16.86141355
O        1.37450009      11.17202967      15.53937775
O        2.67225883       0.85624199      17.30562435
O        2.08770608       3.94677472      17.23991324
O        7.95400500       5.64384253      15.96334341
O        8.58249671       7.84440821      17.15103991
O        5.54237821       4.16497560      15.48459363
O       13.61030996       3.34990576      15.89569595
O       11.32773707       5.26718211      15.96347076
O        0.64856996       7.54632954      16.79035172
O        6.31860290       2.22768394      17.35821784
O        3.73675308      11.72080002      16.80096485
