115
Lattice="13.75323 0.0 0.0 0.0 13.75323 0.0 0.0 0.0 23.89" Properties=species:S:1:pos:R:3 entry_id=29 rank=5 energy=-573.6904296875 parent_id=28 pbc="T T F"
Pd       0.00000000       0.00000000      10.00000000
Pd       2.75064538       0.00000000      10.00000000
Pd       5.50129076       0.00000000      10.00000000
Pd       8.25193614       0.00000000      10.00000000
Pd      11.00258152       0.00000000      10.00000000
Pd       0.00000000       2.75064538      10.00000000
Pd       2.75064538       2.75064538      10.00000000
Pd       5.50129076       2.75064538      10.00000000
Pd       8.25193614       2.75064538      10.00000000
Pd      11.00258152       2.75064538      10.00000000
Pd       0.00000000       5.50129076      10.00000000
Pd       2.75064538       5.50129076      10.00000000
Pd       5.50129076       5.50129076      10.00000000
Pd       8.25193614       5.50129076      10.00000000
Pd      11.00258152       5.50129076      10.00000000
Pd       0.00000000       8.25193614      10.00000000
Pd       2.75064538       8.25193614      10.00000000
Pd       5.50129076       8.25193614      10.00000000
Pd       8.25193614       8.25193614      10.00000000
Pd      11.00258152       8.25193614      10.00000000
Pd       0.00000000      11.00258152      10.00000000
Pd       2.75064538      11.00258152      10.00000000
Pd       5.50129076      11.00258152      10.00000000
Pd       8.25193614      11.00258152      10.00000000
Pd      11.00258152      11.00258152      10.00000000
Pd       1.37433561       1.42039212      11.95745517
Pd       4.13673715       1.40456073      11.92318366
Pd       6.87065050       1.38061114      11.96253298
Pd       9.57512057       1.39592898      11.89594876
Pd      12.38684272       1.37174114      11.92044161
Pd       1.41071899       4.14831028      12.00329160
Pd       4.13403502       4.15346629      11.98997376
Pd       6.86199361       4.11639478      11.99458810
Pd       9.56728621       4.13975942      11.94281254
Pd      12.36578195       4.13265160      11.93417299
Pd       1.37110082       6.89256210      11.94010419
Pd       4.13935064       6.87026939      11.96482277
Pd       6.87097415       6.85831372      11.95140951
Pd       9.64205429       6.82915781      11.94515418
Pd      12.39111484       6.85622887      11.94896407
Pd       1.38064994       9.63586636      11.97023952
Pd       4.11777592       9.66324146      11.95099537
Pd       6.89476706       9.64088005      11.95142944
Pd       9.64982872       9.59779534      11.89439304
Pd      12.42487279       9.60955999      11.94161946
Pd       1.37610986      12.40398298      11.97782285
Pd       4.12092264      12.38299925      11.94433168
Pd       6.86816975      12.39901143      11.97280504
Pd       9.63028672      12.36702810      11.91406436
Pd      12.38048295      12.37288071      11.99932334
Pd       0.04023225       0.03784728      13.97311009
Pd       2.76828748       0.02975516      13.91842222
Pd       5.49179331      13.71273885      13.99011251
Pd       8.25378430      13.68730654      13.88383324
Pd      10.94007086      13.73084643      13.93123641
Pd      13.71200511       2.77933930      13.94958355
Pd       2.74773935       2.81028296      14.04090534
Pd       5.61823278       2.69639919      13.95696381
Pd       8.34576060       2.70019213      14.06182282
Pd      11.00430362       2.69310720      13.96438121
Pd       0.08737895       5.50442050      13.97526794
Pd       2.78204145       5.54888063      14.07987644
Pd       5.54504073       5.65115098      14.03823795
Pd       8.29350676       5.46766209      13.93980378
Pd      11.05012481       5.42456237      13.93062191
Pd      13.70199416       8.23724458      13.96553740
Pd       2.72402921       8.25862362      13.97551716
Pd       5.50064319       8.34675007      13.94145628
Pd       8.27305022       8.23471915      13.98057339
Pd      10.99828522       8.17548220      14.08763155
Pd      13.68870474      11.03644613      14.00782165
Pd       2.78285869      11.03213098      13.97502092
Pd       5.50668802      11.06604978      13.94005190
Pd       6.86474632       9.94480384      15.98327604
Pd       8.24327155      10.95119460      13.90362965
Pd      12.82386126       6.70097807      16.18789174
Pd       9.54830089       9.32829477      16.32457026
Pd       2.13918508      12.87795787      16.45503698
Pd       1.60821648       5.81348078      16.67553004
Pd      11.00404247      10.92440901      13.95250076
Pd       9.57689393       1.82320888      16.65869236
Pd       4.55334952       1.51740676      17.09543473
Pd       4.04617517       9.80658752      16.02461561
Pd       5.54777373      12.40413926      16.60133635
Pd       8.93780555      12.05485536      16.27405700
Pd       1.36584133       2.22120539      16.59056606
Pd       3.84783756       4.13681420      16.34888346
Pd      11.78746926       3.38446561      16.66051752
Pd       1.23030479       9.30886962      16.10136809
Pd       6.82375214       7.16197016      16.27953935
Pd       7.13030842       1.06886724      15.89771477
Pd       9.99070823       6.56682917      16.44153724
Pd       7.28769064       3.83673787      16.60895123
Pd      12.31980500       0.16860922      16.19720348
Pd       4.09406972       7.03248765      16.00428911
O        8.97569400       3.45752719      17.45561251
O       10.53596885      10.95888216      15.91171771
O       10.33763754       0.04994909      16.00286883
O       12.09250488       1.67293636      17.70868782
O       10.87077134       1.47199369      18.30384577
O        5.47855446       8.51501911      16.89308282
O        4.09559483       1.37876712      14.91820173
O        0.53843801       0.36661859      16.06106193
O        7.36834511      13.05870498      16.86970400
O        1.36456891      11.20563938      15.53495257
O        2.71367892       0.87897895      17.29572074
O        2.14809125       3.98095835      17.23268957
O        8.04586688       5.58250214      15.95713392
O        8.66208416       7.80727374      17.16321357
O        5.60748622       4.15999597      15.49321025
O       13.66182726       3.36833427      15.87497475
O       11.42052653       5.26629485      15.95508486
O        0.71791677       7.57546713      16.81145790
O        6.36939310       2.20966231      17.37358101
O        3.73830071      11.70327264      16.81415321
