115
Lattice="13.75323 0.0 0.0 0.0 13.75323 0.0 0.0 0.0 23.89" Properties=species:S:1:pos:R:3 entry_id=17 rank=12 energy=-573.0603637695312 parent_id=16 pbc="T T F"
Pd       0.00000000       0.00000000      10.00000000
Pd       2.75064538       0.00000000      10.00000000
Pd       5.50129076       0.00000000      10.00000000
Pd       8.25193614       0.00000000      10.00000000
Pd      11.00258152       0.00000000      10.00000000
Pd       0.00000000       2.75064538      10.00000000
Pd       2.75064538       2.75064538      10.00000000
Pd       5.50129076       2.75064538      10.00000000
Pd       8.25193614       2.75064538      10.00000000
Pd      11.00258152       2.75064538      10.00000000
Pd       0.00000000       5.50129076      10.00000000
Pd       2.75064538       5.50129076      10.00000000
Pd       5.50129076       5.50129076      10.00000000
Pd       8.25193614       5.50129076      10.00000000
Pd      11.00258152       5.50129076      10.00000000
Pd       0.00000000       8.25193614      10.00000000
Pd       2.75064538       8.25193614      10.00000000
Pd       5.50129076       8.25193614      10.00000000
Pd       8.25193614       8.25193614      10.00000000
Pd      11.00258152       8.25193614      10.00000000
Pd       0.00000000      11.00258152      10.00000000
Pd       2.75064538      11.00258152      10.00000000
Pd       5.50129076      11.00258152      10.00000000
Pd       8.25193614      11.00258152      10.00000000
Pd      11.00258152      11.00258152      10.00000000
Pd       1.36234151       1.39477019      12.00446062
Pd       4.10138487       1.38019154      11.94798203
Pd       6.83867638       1.36951775      11.94554539
Pd       9.57512057       1.39592898      11.89594876
Pd      12.38684272       1.37174114      11.92044161
Pd       1.37027310       4.11995628      12.00120429
Pd       4.10580085       4.13241934      11.94188226
Pd       6.84507997       4.12877846      11.96312730
Pd       9.56728621       4.13975942      11.94281254
Pd      12.36578195       4.13265160      11.93417299
Pd       1.37110082       6.89256210      11.94010419
Pd       4.13935064       6.87026939      11.96482277
Pd       6.87097415       6.85831372      11.95140951
Pd       9.64205429       6.82915781      11.94515418
Pd      12.39111484       6.85622887      11.94896407
Pd       1.38877613       9.65915217      11.99042779
Pd       4.11777592       9.66324146      11.95099537
Pd       6.89476706       9.64088005      11.95142944
Pd       9.64982872       9.59779534      11.89439304
Pd      12.42487279       9.60955999      11.94161946
Pd       1.41462484      12.42747513      12.03399778
Pd       4.12171796      12.39625649      11.97301120
Pd       6.86816975      12.39901143      11.97280504
Pd       9.63028672      12.36702810      11.91406436
Pd      12.43587289      12.41148646      11.97910439
Pd       0.05041599       0.09648338      14.08855316
Pd       2.80103399      13.74483103      14.08855839
Pd       5.53207759       0.01261697      14.02137896
Pd       8.26049909      13.71875386      13.91546615
Pd      11.01760159       0.00254623      13.97358694
Pd      13.63631373       2.80909452      13.98018966
Pd       2.67991419       2.77998013      14.04600980
Pd       5.50944593       2.75908942      13.91871728
Pd       8.20873894       2.73215188      13.90438555
Pd      10.92622802       2.71405614      13.85034381
Pd       0.03116389       5.52175103      14.01263489
Pd       2.77612867       5.49644917      13.93639649
Pd       5.57220040       5.57925954      14.00523134
Pd       8.31008248       5.48896294      13.96721327
Pd      11.07585441       5.46651688      14.01384130
Pd      13.59237685       8.26513749      14.05599043
Pd       2.72582317       8.27259220      13.99181828
Pd       5.51904699       8.29048995      13.92614063
Pd       8.23050550       8.20818575      13.94350660
Pd      10.92753387       8.19823168      14.05204132
Pd       0.05338899      11.08560104      13.97035944
Pd       2.77828558      11.04651958      14.08598597
Pd       5.49898635      11.02617898      13.93246067
Pd       6.86454362      10.65337831      16.39475781
Pd       8.19074554      10.95325305      13.89853334
Pd      12.25842536       9.86762463      15.93817721
Pd       9.24610032       9.16079930      16.31696428
Pd       2.09348777      13.42588577      16.96153901
Pd       1.53023759       6.21752534      16.25638629
Pd      11.11577226      10.99863195      13.79898055
Pd       9.35490047       1.40966565      15.82799875
Pd       4.49760134       1.81813896      17.13276764
Pd       4.16242236       9.59545288      15.95618872
Pd       4.62045215      12.27922387      16.10815106
Pd       9.95976834      12.31833735      16.46597165
Pd       1.12457491       2.62542342      16.60172172
Pd       3.75747943       4.27888783      16.32204275
Pd      11.31656458       3.20594906      16.49629967
Pd       1.21137685      10.00642471      16.19067417
Pd       6.81346815       7.33824841      16.32117220
Pd       6.98294975       0.29781496      16.45019191
Pd       9.86815275       6.43211345      16.57267932
Pd       7.41757682       3.67860773      16.44615395
Pd      12.94320890      13.02407304      16.69364440
Pd       4.16558826       6.90708725      15.89759291
O        9.32287783       3.03526335      17.01153210
O        9.74495062      10.74474064      15.29704494
O       11.73276280      11.54310301      17.05063453
O       11.65777386       0.86858555      17.19085170
O       10.32961802       0.37348811      17.37979545
O        5.88357632       9.02174124      16.90855146
O        4.11838889       1.49132091      14.98004682
O        0.51319718       0.65689833      16.12038946
O        7.88893039      12.35405680      16.08776583
O        0.87577290      11.81393444      16.85123383
O        2.60311245       1.55329150      17.45091436
O        1.93100123       4.43434267      17.03826228
O        7.96277227       5.58057696      15.99381579
O        8.60720346       7.68912463      17.39177238
O        5.59725306       4.15369987      15.55971832
O       13.22658304       3.42248333      15.87227692
O       11.19432464       5.15884961      15.99462191
O        1.25964865       8.09303011      15.58097583
O        6.43617450       2.03952839      17.12062858
O        3.62800867      12.56239636      17.72182392
