115
Lattice="13.75323 0.0 0.0 0.0 13.75323 0.0 0.0 0.0 23.89" Properties=species:S:1:pos:R:3 entry_id=14 rank=15 energy=-573.0353393554688 parent_id=13 pbc="T T F"
Pd       0.00000000       0.00000000      10.00000000
Pd       2.75064538       0.00000000      10.00000000
Pd       5.50129076       0.00000000      10.00000000
Pd       8.25193614       0.00000000      10.00000000
Pd      11.00258152       0.00000000      10.00000000
Pd       0.00000000       2.75064538      10.00000000
Pd       2.75064538       2.75064538      10.00000000
Pd       5.50129076       2.75064538      10.00000000
Pd       8.25193614       2.75064538      10.00000000
Pd      11.00258152       2.75064538      10.00000000
Pd       0.00000000       5.50129076      10.00000000
Pd       2.75064538       5.50129076      10.00000000
Pd       5.50129076       5.50129076      10.00000000
Pd       8.25193614       5.50129076      10.00000000
Pd      11.00258152       5.50129076      10.00000000
Pd       0.00000000       8.25193614      10.00000000
Pd       2.75064538       8.25193614      10.00000000
Pd       5.50129076       8.25193614      10.00000000
Pd       8.25193614       8.25193614      10.00000000
Pd      11.00258152       8.25193614      10.00000000
Pd       0.00000000      11.00258152      10.00000000
Pd       2.75064538      11.00258152      10.00000000
Pd       5.50129076      11.00258152      10.00000000
Pd       8.25193614      11.00258152      10.00000000
Pd      11.00258152      11.00258152      10.00000000
Pd       1.36083909       1.41272596      11.98257269
Pd       4.10099730       1.39042865      11.93469703
Pd       6.83655652       1.36146849      11.93282146
Pd       9.57512057       1.39592898      11.89594876
Pd      12.38684272       1.37174114      11.92044161
Pd       1.35947326       4.11358147      12.01706861
Pd       4.08606185       4.15322220      11.96149624
Pd       6.82625102       4.13685453      11.95794502
Pd       9.56728621       4.13975942      11.94281254
Pd      12.36578195       4.13265160      11.93417299
Pd       1.37110082       6.89256210      11.94010419
Pd       4.13935064       6.87026939      11.96482277
Pd       6.87097415       6.85831372      11.95140951
Pd       9.64205429       6.82915781      11.94515418
Pd      12.39111484       6.85622887      11.94896407
Pd       1.38698369       9.65211136      12.01522695
Pd       4.11777592       9.66324146      11.95099537
Pd       6.89476706       9.64088005      11.95142944
Pd       9.64982872       9.59779534      11.89439304
Pd      12.42487279       9.60955999      11.94161946
Pd       1.41115985      12.40047376      11.99101258
Pd       4.12886143      12.39176844      11.96310444
Pd       6.86816975      12.39901143      11.97280504
Pd       9.63028672      12.36702810      11.91406436
Pd      12.40416258      12.34732225      11.97811630
Pd       0.02000531       0.07416684      13.93570774
Pd       2.72798238       0.02025908      14.00631335
Pd       5.52775045      13.74462556      14.00582553
Pd       8.20446786      13.69036292      13.94781740
Pd      10.97432726       0.06792021      13.88406993
Pd      13.63481019       2.76982201      14.11240730
Pd       2.66156280       2.77785935      14.05125693
Pd       5.49810064       2.74565091      13.87953949
Pd       8.20342645       2.72607504      13.86238480
Pd      10.93003704       2.73555518      13.87520765
Pd       0.06009878       5.48941957      13.96810273
Pd       2.75742697       5.52261729      13.99799390
Pd       5.55394243       5.59855443      14.05791981
Pd       8.30793060       5.47773966      13.93373619
Pd      11.05424999       5.41609058      13.99414293
Pd      13.63518814       8.24592493      13.98167534
Pd       2.64965376       8.28243978      14.04171336
Pd       5.44234368       8.31987185      13.98339087
Pd       8.17774564       8.20011080      13.94365676
Pd      10.90724327       8.11900538      14.09284391
Pd       0.11678891      11.07994441      14.03405409
Pd       2.81295327      11.01617405      14.04417909
Pd       5.51641084      11.02421519      13.95466093
Pd       6.79206201      10.60838771      16.31399854
Pd       8.20927712      10.95424861      13.91917349
Pd      12.57637056       6.58524883      16.13521613
Pd       9.02861721       9.03286174      16.35329355
Pd       1.97882106      12.95982180      16.68455760
Pd       1.41837834       5.87095994      16.46625337
Pd      11.17378648      10.80752531      13.95156082
Pd       9.27478203       1.40119525      15.80176428
Pd       4.62111316       1.49855049      17.02469898
Pd       4.23738351       9.64975229      16.25614951
Pd       4.91249581      12.50900277      16.32191993
Pd       9.68561908      12.35488649      16.42713446
Pd       1.21028371       2.18751181      16.84397115
Pd       3.85355283       4.09137535      16.26450806
Pd      11.37695947       3.02215580      16.60493167
Pd       0.65009418       9.56054129      16.19595317
Pd       6.72118180       6.94992888      16.27762181
Pd       7.13752533       0.06262118      16.88687190
Pd       9.82232648       6.37197703      16.65327209
Pd       7.48519328       3.54799280      16.45180345
Pd      12.80564782      13.23707182      16.43935767
Pd       3.94235505       6.85904325      15.96652853
O        9.37654651       2.96587217      17.06418487
O        9.61980734      10.61898409      15.39640452
O       11.35895108      12.46997438      15.39529198
O       11.53484338       0.94808749      17.24504697
O       10.19601037       0.40614747      17.39368543
O        5.21302157       8.07533267      16.94515394
O        4.14260571       1.38629018      14.93429487
O        0.49803371       0.36198094      17.34764409
O        7.88718848      12.03694687      17.23398448
O        0.43880958      11.59114512      16.06489623
O        2.79817282       1.00205192      17.38332167
O        2.05559957       4.05259615      16.96149146
O        8.06537620       5.41178184      15.96221386
O        8.41512052       7.53405237      17.39998239
O        5.69327362       4.05462194      15.53861421
O       13.31466271       3.03885935      16.09394017
O       11.21620140       5.08143253      16.06579665
O        0.44835228       7.63056428      16.53187463
O        6.53072600       1.90649793      17.12989643
O        3.22771355      11.42269267      16.06934307
