115
Lattice="13.75323 0.0 0.0 0.0 13.75323 0.0 0.0 0.0 23.89" Properties=species:S:1:pos:R:3 entry_id=22 rank=14 energy=-573.0449829101562 parent_id=21 pbc="T T F"
Pd       0.00000000       0.00000000      10.00000000
Pd       2.75064538       0.00000000      10.00000000
Pd       5.50129076       0.00000000      10.00000000
Pd       8.25193614       0.00000000      10.00000000
Pd      11.00258152       0.00000000      10.00000000
Pd       0.00000000       2.75064538      10.00000000
Pd       2.75064538       2.75064538      10.00000000
Pd       5.50129076       2.75064538      10.00000000
Pd       8.25193614       2.75064538      10.00000000
Pd      11.00258152       2.75064538      10.00000000
Pd       0.00000000       5.50129076      10.00000000
Pd       2.75064538       5.50129076      10.00000000
Pd       5.50129076       5.50129076      10.00000000
Pd       8.25193614       5.50129076      10.00000000
Pd      11.00258152       5.50129076      10.00000000
Pd       0.00000000       8.25193614      10.00000000
Pd       2.75064538       8.25193614      10.00000000
Pd       5.50129076       8.25193614      10.00000000
Pd       8.25193614       8.25193614      10.00000000
Pd      11.00258152       8.25193614      10.00000000
Pd       0.00000000      11.00258152      10.00000000
Pd       2.75064538      11.00258152      10.00000000
Pd       5.50129076      11.00258152      10.00000000
Pd       8.25193614      11.00258152      10.00000000
Pd      11.00258152      11.00258152      10.00000000
Pd       1.36384138       1.39818657      11.98785443
Pd       4.11262923       1.39237736      11.93595180
Pd       6.85308955       1.38092467      11.94716727
Pd       9.57512057       1.39592898      11.89594876
Pd      12.38684272       1.37174114      11.92044161
Pd       1.37551851       4.11242277      12.00031879
Pd       4.11534183       4.14084214      11.94182541
Pd       6.85494282       4.13444952      11.97849560
Pd       9.56728621       4.13975942      11.94281254
Pd      12.36578195       4.13265160      11.93417299
Pd       1.37110082       6.89256210      11.94010419
Pd       4.13935064       6.87026939      11.96482277
Pd       6.87097415       6.85831372      11.95140951
Pd       9.64205429       6.82915781      11.94515418
Pd      12.39111484       6.85622887      11.94896407
Pd       1.37382953       9.65034768      12.00445861
Pd       4.11777592       9.66324146      11.95099537
Pd       6.89476706       9.64088005      11.95142944
Pd       9.64982872       9.59779534      11.89439304
Pd      12.42487279       9.60955999      11.94161946
Pd       1.40115693      12.41196193      12.01320741
Pd       4.12611104      12.39576988      11.95391789
Pd       6.86816975      12.39901143      11.97280504
Pd       9.63028672      12.36702810      11.91406436
Pd      12.43361853      12.39285733      11.98945764
Pd       0.02195616       0.12823761      14.03962334
Pd       2.80413015      13.73880576      14.00263422
Pd       5.57056287       0.02542520      13.99125039
Pd       8.29201516      13.72501737      13.92854063
Pd      11.02429941      13.72803492      13.98949239
Pd      13.64607040       2.82857028      14.02712682
Pd       2.67927967       2.77054830      14.04568751
Pd       5.52626241       2.78491601      13.90742450
Pd       8.24670554       2.70398053      13.95305606
Pd      10.94412556       2.69755179      13.85582992
Pd       0.04636617       5.49629006      13.97258880
Pd       2.80455611       5.47595842      13.94256006
Pd       5.57891160       5.61944949      14.05276971
Pd       8.31917857       5.47134555      13.97401336
Pd      11.08832005       5.45716153      14.01213078
Pd      13.57896832       8.20930003      14.03320802
Pd       2.69184944       8.23740979      14.02462399
Pd       5.44849049       8.33823663      13.98367064
Pd       8.18165173       8.19978457      13.94210818
Pd      10.89464685       8.16858626      14.02706197
Pd       0.05694399      11.11975578      14.05468103
Pd       2.77725627      11.02050644      14.00935903
Pd       5.47438157      11.04470955      13.94846106
Pd       6.83214649      10.59653837      16.38047057
Pd       8.16923264      10.96149305      13.89180360
Pd      12.13704735       9.66189155      15.95512556
Pd       9.20549968       9.11863590      16.31464751
Pd       2.06252033      13.00634109      16.63920324
Pd       1.53151566       5.86232194      16.30994671
Pd      11.11746848      10.97554130      13.81206648
Pd       9.51528161       1.35126073      15.88846856
Pd       4.51899011       1.56989058      17.03942606
Pd       3.99212380       9.72999463      16.09523851
Pd       4.81131090      12.49964061      16.20015081
Pd       9.93746551      12.18001136      16.52092920
Pd       1.15813346       2.33312435      16.61436251
Pd       3.78577790       4.14987981      16.34844862
Pd      11.30892740       3.29450419      16.47185043
Pd       1.11837483       9.60697317      16.07701300
Pd       6.77205107       7.29340960      16.30284522
Pd       7.07648303       0.28150361      16.44740269
Pd       9.87025974       6.45462571      16.58044907
Pd       7.42525682       3.64746770      16.44534685
Pd      12.87600662      12.82875407      16.68624058
Pd       4.09409947       6.91700642      15.94278036
O        9.34370487       3.04220113      16.98414906
O        9.71418137      10.67999943      15.26803261
O       11.68470407      11.34486523      17.10390204
O       11.70101668       0.51574939      17.49297562
O       10.33868691       0.18926576      17.48516173
O        5.80960499       8.97831305      16.86196858
O        4.14093051       1.46299485      14.92544270
O        0.48003240       0.44493574      16.08792937
O        7.89978306      12.29302801      16.10356952
O        0.70696717      11.54280471      16.14048997
O        2.64538711       1.10235785      17.31479973
O        1.97768141       4.10883901      17.11062997
O        7.96377217       5.55358528      15.99741339
O        8.55335820       7.65723757      17.39736633
O        5.61371655       4.13730837      15.57322938
O       13.25783054       3.27658501      15.96624392
O       11.26163496       5.25280285      16.00488756
O        1.19187441       7.69052628      15.60460303
O        6.44803742       1.99327577      17.10716541
O        3.38726005      11.53859052      17.13414356
