115
Lattice="13.75323 0.0 0.0 0.0 13.75323 0.0 0.0 0.0 23.89" Properties=species:S:1:pos:R:3 entry_id=16 rank=7 energy=-573.2059326171875 parent_id=15 pbc="T T F"
Pd       0.00000000       0.00000000      10.00000000
Pd       2.75064538       0.00000000      10.00000000
Pd       5.50129076       0.00000000      10.00000000
Pd       8.25193614       0.00000000      10.00000000
Pd      11.00258152       0.00000000      10.00000000
Pd       0.00000000       2.75064538      10.00000000
Pd       2.75064538       2.75064538      10.00000000
Pd       5.50129076       2.75064538      10.00000000
Pd       8.25193614       2.75064538      10.00000000
Pd      11.00258152       2.75064538      10.00000000
Pd       0.00000000       5.50129076      10.00000000
Pd       2.75064538       5.50129076      10.00000000
Pd       5.50129076       5.50129076      10.00000000
Pd       8.25193614       5.50129076      10.00000000
Pd      11.00258152       5.50129076      10.00000000
Pd       0.00000000       8.25193614      10.00000000
Pd       2.75064538       8.25193614      10.00000000
Pd       5.50129076       8.25193614      10.00000000
Pd       8.25193614       8.25193614      10.00000000
Pd      11.00258152       8.25193614      10.00000000
Pd       0.00000000      11.00258152      10.00000000
Pd       2.75064538      11.00258152      10.00000000
Pd       5.50129076      11.00258152      10.00000000
Pd       8.25193614      11.00258152      10.00000000
Pd      11.00258152      11.00258152      10.00000000
Pd       1.37024774       1.40993003      11.99743692
Pd       4.09098961       1.38831067      11.95328911
Pd       6.82442290       1.36783828      11.93281276
Pd       9.57512057       1.39592898      11.89594876
Pd      12.38684272       1.37174114      11.92044161
Pd       1.35970198       4.10620558      12.01620912
Pd       4.08268696       4.14921630      11.95824408
Pd       6.82183670       4.14155264      11.95921831
Pd       9.56728621       4.13975942      11.94281254
Pd      12.36578195       4.13265160      11.93417299
Pd       1.37110082       6.89256210      11.94010419
Pd       4.13935064       6.87026939      11.96482277
Pd       6.87097415       6.85831372      11.95140951
Pd       9.64205429       6.82915781      11.94515418
Pd      12.39111484       6.85622887      11.94896407
Pd       1.36462650       9.66245044      11.99991162
Pd       4.11777592       9.66324146      11.95099537
Pd       6.89476706       9.64088005      11.95142944
Pd       9.64982872       9.59779534      11.89439304
Pd      12.42487279       9.60955999      11.94161946
Pd       1.41152747      12.42207824      11.99370147
Pd       4.12506020      12.41369204      11.96174042
Pd       6.86816975      12.39901143      11.97280504
Pd       9.63028672      12.36702810      11.91406436
Pd      12.40790322      12.34602559      11.97936145
Pd       0.01909169       0.10158678      13.93710251
Pd       2.74024840      13.75046887      14.11013327
Pd       5.53169012       0.01539910      14.02330412
Pd       8.20938377      13.69310818      13.91391172
Pd      10.97993199       0.05343079      13.88827808
Pd      13.62012465       2.77923420      14.12633307
Pd       2.64204350       2.78650070      14.06832490
Pd       5.48347703       2.75979238      13.88872027
Pd       8.19176212       2.73690448      13.85111702
Pd      10.92318762       2.72437817      13.87446069
Pd       0.03693282       5.47834996      13.94002002
Pd       2.74741995       5.53131297      13.98103244
Pd       5.52299969       5.61832592      14.05641578
Pd       8.28720811       5.47286116      13.95606710
Pd      11.02278718       5.40446729      13.99991992
Pd      13.67155383       8.26438074      14.02227844
Pd       2.66969786       8.30585014      13.98271256
Pd       5.43821924       8.36132903      14.00391437
Pd       8.22029240       8.20014075      13.91058535
Pd      10.93218954       8.12052166      14.07359284
Pd       0.12681842      11.14456817      14.05683198
Pd       2.80349789      11.05229686      13.99043358
Pd       5.50330255      11.05222786      13.92766370
Pd       6.69097438      10.47713922      16.41744507
Pd       8.18378197      10.95065261      13.92180961
Pd      12.53468563       6.57995492      16.08946067
Pd       9.02416627       9.05616271      16.35135289
Pd       1.97005206      13.03589449      16.97835486
Pd       1.39662365       5.93911525      16.40129885
Pd      11.18474643      10.81372131      13.95672379
Pd       9.23196231       1.40613469      15.78515943
Pd       4.54028156       1.54237079      17.06494455
Pd       3.58546349       9.71241245      16.21298294
Pd       4.58465606      12.38891589      16.06676834
Pd       9.61566450      12.36854812      16.37246858
Pd       1.17174434       2.30095185      16.90144394
Pd       3.79671945       4.16532830      16.29240656
Pd      11.32778422       3.03477304      16.60521987
Pd       0.79903878       9.69109684      16.19895748
Pd       6.77773535       7.05602687      16.12128844
Pd       6.97062209       0.02509467      16.59366551
Pd       9.78607298       6.37358655      16.67932263
Pd       7.41976250       3.55255827      16.42872110
Pd      12.78605704      13.28986466      16.42928888
Pd       3.92964086       6.95711298      15.96335780
O        9.31504112       2.96708529      17.04706156
O        9.60939634      10.62294090      15.36920165
O       11.34774332      12.46200471      15.42394322
O       11.46951887       0.96037614      17.23315588
O       10.13167388       0.40839814      17.36987463
O        5.66062534       8.76352166      16.14756649
O        4.07323693       1.45717178      14.97312793
O        0.43218128       0.48834362      17.32331553
O        7.74434313      12.03090612      17.03208999
O        0.52466444      11.69258418      16.15463411
O        2.73664964       1.12609065      17.57610555
O        2.01140024       4.16191335      17.03238195
O        8.00612677       5.41636938      16.00749941
O        8.39992489       7.56621410      17.40405148
O        5.62423784       4.09732411      15.53884176
O       13.27517413       3.09518731      16.09800217
O       11.17648297       5.08824733      16.09251812
O        0.43510498       7.71832598      16.13081161
O        6.45656656       1.87576400      16.97317692
O        3.26041597      11.48460020      17.19806851
