115
Lattice="13.75323 0.0 0.0 0.0 13.75323 0.0 0.0 0.0 23.89" Properties=species:S:1:pos:R:3 entry_id=21 rank=11 energy=-573.063232421875 parent_id=20 pbc="T T F"
Pd       0.00000000       0.00000000      10.00000000
Pd       2.75064538       0.00000000      10.00000000
Pd       5.50129076       0.00000000      10.00000000
Pd       8.25193614       0.00000000      10.00000000
Pd      11.00258152       0.00000000      10.00000000
Pd       0.00000000       2.75064538      10.00000000
Pd       2.75064538       2.75064538      10.00000000
Pd       5.50129076       2.75064538      10.00000000
Pd       8.25193614       2.75064538      10.00000000
Pd      11.00258152       2.75064538      10.00000000
Pd       0.00000000       5.50129076      10.00000000
Pd       2.75064538       5.50129076      10.00000000
Pd       5.50129076       5.50129076      10.00000000
Pd       8.25193614       5.50129076      10.00000000
Pd      11.00258152       5.50129076      10.00000000
Pd       0.00000000       8.25193614      10.00000000
Pd       2.75064538       8.25193614      10.00000000
Pd       5.50129076       8.25193614      10.00000000
Pd       8.25193614       8.25193614      10.00000000
Pd      11.00258152       8.25193614      10.00000000
Pd       0.00000000      11.00258152      10.00000000
Pd       2.75064538      11.00258152      10.00000000
Pd       5.50129076      11.00258152      10.00000000
Pd       8.25193614      11.00258152      10.00000000
Pd      11.00258152      11.00258152      10.00000000
Pd       1.36219472       1.39224924      12.00963631
Pd       4.10424585       1.38352969      11.95092240
Pd       6.84511702       1.36899597      11.95425531
Pd       9.57512057       1.39592898      11.89594876
Pd      12.38684272       1.37174114      11.92044161
Pd       1.36982647       4.11648688      12.00289146
Pd       4.10748934       4.13337572      11.94178162
Pd       6.85095392       4.12268306      11.97050817
Pd       9.56728621       4.13975942      11.94281254
Pd      12.36578195       4.13265160      11.93417299
Pd       1.37110082       6.89256210      11.94010419
Pd       4.13935064       6.87026939      11.96482277
Pd       6.87097415       6.85831372      11.95140951
Pd       9.64205429       6.82915781      11.94515418
Pd      12.39111484       6.85622887      11.94896407
Pd       1.39015402       9.66095307      11.99546184
Pd       4.11777592       9.66324146      11.95099537
Pd       6.89476706       9.64088005      11.95142944
Pd       9.64982872       9.59779534      11.89439304
Pd      12.42487279       9.60955999      11.94161946
Pd       1.41769039      12.42724261      12.04143465
Pd       4.12343635      12.39851584      11.97535675
Pd       6.86816975      12.39901143      11.97280504
Pd       9.63028672      12.36702810      11.91406436
Pd      12.44198601      12.41106626      11.98519363
Pd       0.05147643       0.09827717      14.10773967
Pd       2.80832709      13.74508412      14.09440009
Pd       5.54683827       0.01629437      14.02299662
Pd       8.27669106      13.71161799      13.93528896
Pd      11.02557672      13.75111098      13.98153211
Pd      13.63879702       2.81073421      13.99118134
Pd       2.68202041       2.77552883      14.05129556
Pd       5.51524079       2.76554428      13.92086087
Pd       8.22557321       2.71347149      13.93306345
Pd      10.93265717       2.71241088      13.85038477
Pd       0.03236652       5.52024583      14.00991644
Pd       2.78048966       5.49039905      13.93621310
Pd       5.57415040       5.58381570      14.00623909
Pd       8.30702023       5.47801501      13.97013345
Pd      11.07193931       5.47858891      13.99859317
Pd      13.60021188       8.26307126      14.05174066
Pd       2.73216366       8.26638504      13.99550228
Pd       5.52174889       8.29361479      13.92815671
Pd       8.23330193       8.20014758      13.94558090
Pd      10.93058453       8.20262918      14.04633053
Pd       0.06290829      11.08707362      13.98821350
Pd       2.78603730      11.04581080      14.09232247
Pd       5.50716733      11.02890025      13.93362811
Pd       6.88115300      10.67344130      16.39722680
Pd       8.20023320      10.94532685      13.89250919
Pd      12.26784410       9.82678486      15.94315853
Pd       9.24019835       9.16074780      16.33066031
Pd       2.10503690      13.39495771      16.96816060
Pd       1.53564756       6.17795249      16.26098273
Pd      11.12922489      10.99732736      13.80736601
Pd       9.43759290       1.39660807      15.86151161
Pd       4.50751321       1.80190507      17.12069299
Pd       4.17150267       9.60030717      15.95777329
Pd       4.64751963      12.29141686      16.11417487
Pd       9.97256532      12.26256848      16.49847291
Pd       1.11561784       2.59248757      16.60602839
Pd       3.76277285       4.26464995      16.32263945
Pd      11.29910810       3.30393986      16.46598506
Pd       1.22909898       9.95965820      16.19307956
Pd       6.81529958       7.35222692      16.32579195
Pd       7.02315200       0.31716617      16.45201165
Pd       9.87452560       6.47982156      16.58448274
Pd       7.42615698       3.69197248      16.44342248
Pd      12.96247963      12.94201898      16.73810898
Pd       4.16806866       6.90293454      15.90163473
O        9.33526267       3.06566115      16.99424901
O        9.75027346      10.72429241      15.29066271
O       11.73880210      11.46795273      17.09532657
O       11.69753316       0.71030630      17.30912801
O       10.35662430       0.29441808      17.42683660
O        5.89483393       9.04221716      16.90779850
O        4.13137789       1.48775178      14.98492209
O        0.49875189       0.60994130      16.14574653
O        7.92063776      12.36853981      16.08590369
O        0.91240864      11.76200379      16.86315909
O        2.60830621       1.52480827      17.44117103
O        1.93590597       4.39555169      17.04200883
O        7.96727936       5.59880618      15.99567704
O        8.59273472       7.70191479      17.42078403
O        5.60366185       4.16024823      15.56191698
O       13.22457431       3.43011210      15.88116534
O       11.22998746       5.25669694      15.98630092
O        1.26484397       8.05090595      15.57890221
O        6.44796253       2.05028743      17.11480102
O        3.65253238      12.55267049      17.72738209
