115
Lattice="13.75323 0.0 0.0 0.0 13.75323 0.0 0.0 0.0 23.89" Properties=species:S:1:pos:R:3 entry_id=1 rank=30 energy=-571.3533325195312 parent_id=0 pbc="T T F"
Pd       0.00000000       0.00000000      10.00000000
Pd       2.75064538       0.00000000      10.00000000
Pd       5.50129076       0.00000000      10.00000000
Pd       8.25193614       0.00000000      10.00000000
Pd      11.00258152       0.00000000      10.00000000
Pd       0.00000000       2.75064538      10.00000000
Pd       2.75064538       2.75064538      10.00000000
Pd       5.50129076       2.75064538      10.00000000
Pd       8.25193614       2.75064538      10.00000000
Pd      11.00258152       2.75064538      10.00000000
Pd       0.00000000       5.50129076      10.00000000
Pd       2.75064538       5.50129076      10.00000000
Pd       5.50129076       5.50129076      10.00000000
Pd       8.25193614       5.50129076      10.00000000
Pd      11.00258152       5.50129076      10.00000000
Pd       0.00000000       8.25193614      10.00000000
Pd       2.75064538       8.25193614      10.00000000
Pd       5.50129076       8.25193614      10.00000000
Pd       8.25193614       8.25193614      10.00000000
Pd      11.00258152       8.25193614      10.00000000
Pd       0.00000000      11.00258152      10.00000000
Pd       2.75064538      11.00258152      10.00000000
Pd       5.50129076      11.00258152      10.00000000
Pd       8.25193614      11.00258152      10.00000000
Pd      11.00258152      11.00258152      10.00000000
Pd       1.29535244       1.36680136      12.05577244
Pd       4.06482990       1.38247163      11.91641032
Pd       6.82427005       1.38506504      11.90716333
Pd       9.57512057       1.39592898      11.89594876
Pd      12.38684272       1.37174114      11.92044161
Pd       1.34672814       4.09552431      12.00469811
Pd       4.07238706       4.14425621      11.94379564
Pd       6.82965992       4.15260416      11.95188799
Pd       9.56728621       4.13975942      11.94281254
Pd      12.36578195       4.13265160      11.93417299
Pd       1.37110082       6.89256210      11.94010419
Pd       4.13935064       6.87026939      11.96482277
Pd       6.87097415       6.85831372      11.95140951
Pd       9.64205429       6.82915781      11.94515418
Pd      12.39111484       6.85622887      11.94896407
Pd       1.38621088       9.64878710      12.01202250
Pd       4.11777592       9.66324146      11.95099537
Pd       6.89476706       9.64088005      11.95142944
Pd       9.64982872       9.59779534      11.89439304
Pd      12.42487279       9.60955999      11.94161946
Pd       1.36706640      12.39300660      12.04269878
Pd       4.11612519      12.36290604      11.97246877
Pd       6.86816975      12.39901143      11.97280504
Pd       9.63028672      12.36702810      11.91406436
Pd      12.41530638      12.35611843      11.98988843
Pd      13.64616646      13.68595986      14.20769033
Pd       2.72999518       0.02545851      13.97283129
Pd       5.53603850      13.73684021      13.93694769
Pd       8.23852911       0.02675825      13.83369605
Pd      10.96164761       0.05473752      13.84023228
Pd      13.60079128       2.69616410      14.10815978
Pd       2.61501889       2.80202291      14.06963815
Pd       5.48257077       2.73733211      13.85158064
Pd       8.19131169       2.78011724      13.85199482
Pd      10.93334049       2.75164883      13.86384903
Pd      13.75185641       5.41819760      13.98212733
Pd       2.72959307       5.53480363      13.95171045
Pd       5.52666104       5.53712285      14.01734608
Pd       8.25346485       5.53830450      14.01970571
Pd      11.00043129       5.45232304      13.96061846
Pd       0.00588544       8.14559275      13.99091782
Pd       2.73530849       8.29635517      14.02788148
Pd       5.52420066       8.24625785      13.95360758
Pd       8.27484524       8.31331768      13.99384894
Pd      11.03939630       8.24396300      13.87463031
Pd      13.74822823      10.94953449      14.11591274
Pd       2.84141492      11.04721626      14.07782669
Pd       5.56473889      10.96504593      13.99850511
Pd       8.27288993      11.09859216      14.12822777
Pd      10.99946015      10.97822107      13.87248841
Pd      12.51517095       6.43272762      16.30016294
Pd       9.05038503       9.63439505      16.40229794
Pd       1.95734212      13.11716399      16.46532597
Pd       1.41264597       6.42956699      16.15785722
Pd      12.22763192       9.09432451      16.26273780
Pd       9.36308607       1.43189990      15.72566097
Pd       4.46540540       1.44202283      16.94965598
Pd       5.47547578       9.14505158      16.62401335
Pd       4.58660536      12.59821442      16.19464457
Pd      10.56726580      12.50643160      16.21070702
Pd       1.14252583       2.58454021      16.68578006
Pd       3.73567266       4.21402430      16.24625164
Pd      11.24746878       3.24642328      16.62155336
Pd       1.13375413       9.39506143      16.19168940
Pd       7.37620459       7.04425316      16.55346067
Pd       7.27392077      13.65697937      16.37669452
Pd       9.90750256       7.13952445      15.99897101
Pd       7.33829376       3.41502144      16.43557853
Pd      13.34633362       0.35641902      17.08945757
Pd       4.04546769       6.89423104      15.88340406
O        9.23562860       2.93808261      17.04588506
O       10.79865629      10.45577470      15.88582036
O       12.55592669      12.81169895      15.89575570
O       11.51004865       1.36704464      17.49952189
O       10.37001359       0.52971373      17.28372343
O        5.38905977       7.28083601      17.27550815
O        4.11322437       1.44094571      14.86556746
O        0.30805480       1.67275060      18.21570751
O        8.52536963      12.10127491      16.07624555
O        1.57366738      11.28719257      15.69364687
O        2.54883553       1.12116917      17.17506396
O        1.96249121       4.57891896      16.88178875
O        7.97002498       5.24969129      15.99973548
O        7.45055647       8.90524815      17.22025733
O        5.57343473       3.98958834      15.54407807
O       13.21188221       3.45653725      15.98158672
O       11.03087502       5.16020655      16.00216150
O        0.02986464       7.87550314      16.95297461
O        6.43315676       1.62140634      16.93728543
O        5.63458746      10.95656503      16.01687281
