115
Lattice="13.75323 0.0 0.0 0.0 13.75323 0.0 0.0 0.0 23.89" Properties=species:S:1:pos:R:3 entry_id=8 rank=29 energy=-571.3819580078125 parent_id=7 pbc="T T F"
Pd       0.00000000       0.00000000      10.00000000
Pd       2.75064538       0.00000000      10.00000000
Pd       5.50129076       0.00000000      10.00000000
Pd       8.25193614       0.00000000      10.00000000
Pd      11.00258152       0.00000000      10.00000000
Pd       0.00000000       2.75064538      10.00000000
Pd       2.75064538       2.75064538      10.00000000
Pd       5.50129076       2.75064538      10.00000000
Pd       8.25193614       2.75064538      10.00000000
Pd      11.00258152       2.75064538      10.00000000
Pd       0.00000000       5.50129076      10.00000000
Pd       2.75064538       5.50129076      10.00000000
Pd       5.50129076       5.50129076      10.00000000
Pd       8.25193614       5.50129076      10.00000000
Pd      11.00258152       5.50129076      10.00000000
Pd       0.00000000       8.25193614      10.00000000
Pd       2.75064538       8.25193614      10.00000000
Pd       5.50129076       8.25193614      10.00000000
Pd       8.25193614       8.25193614      10.00000000
Pd      11.00258152       8.25193614      10.00000000
Pd       0.00000000      11.00258152      10.00000000
Pd       2.75064538      11.00258152      10.00000000
Pd       5.50129076      11.00258152      10.00000000
Pd       8.25193614      11.00258152      10.00000000
Pd      11.00258152      11.00258152      10.00000000
Pd       1.33133649       1.37814552      12.03226185
Pd       4.08744993       1.39742088      11.93758350
Pd       6.85897299       1.37967204      11.97715718
Pd       9.57512057       1.39592898      11.89594876
Pd      12.38684272       1.37174114      11.92044161
Pd       1.36825870       4.10690338      11.96559537
Pd       4.14156907       4.13250969      11.94390427
Pd       6.85441859       4.12801263      12.01290839
Pd       9.56728621       4.13975942      11.94281254
Pd      12.36578195       4.13265160      11.93417299
Pd       1.37110082       6.89256210      11.94010419
Pd       4.13935064       6.87026939      11.96482277
Pd       6.87097415       6.85831372      11.95140951
Pd       9.64205429       6.82915781      11.94515418
Pd      12.39111484       6.85622887      11.94896407
Pd       1.37079488       9.67092742      12.01524998
Pd       4.11777592       9.66324146      11.95099537
Pd       6.89476706       9.64088005      11.95142944
Pd       9.64982872       9.59779534      11.89439304
Pd      12.42487279       9.60955999      11.94161946
Pd       1.35681645      12.39152865      12.03446026
Pd       4.08087978      12.38711209      11.96801947
Pd       6.86816975      12.39901143      11.97280504
Pd       9.63028672      12.36702810      11.91406436
Pd      12.38743671      12.34320526      11.96803758
Pd      13.67645723       0.02591652      14.02556201
Pd       2.69788868       0.03297126      14.04062831
Pd       5.51152800       0.01505381      13.93422401
Pd       8.22634779      13.60790992      14.05975399
Pd      10.94246793      13.74194160      13.83291534
Pd      13.71692938       2.76554906      14.12742858
Pd       2.69058372       2.81432722      13.97926751
Pd       5.51848773       2.84314926      14.03759281
Pd       8.22565314       2.70836282      13.95840636
Pd      11.01975013       2.74587605      13.83482797
Pd       0.08881064       5.47033940      13.94855293
Pd       2.83201935       5.57192689      13.87223139
Pd       5.57111812       5.54173088      14.03862156
Pd       8.30091488       5.49248668      13.99623967
Pd      11.07139123       5.44404510      13.96533585
Pd       0.04896504       8.19666143      13.96269825
Pd       2.78791977       8.28828211      13.95761849
Pd       5.54801655       8.25462998      13.95460373
Pd       8.26602247       8.30807632      13.95022189
Pd      11.00172687       8.17466311      13.97220867
Pd      13.64214943      10.95995630      14.13213955
Pd       2.68459954      11.04320939      14.07884773
Pd       5.45769139      11.00776516      13.85732092
Pd       7.84582710      11.41255159      16.21461560
Pd      10.80972491      10.95703376      13.85179100
Pd      12.98081372       6.59580811      16.28582527
Pd       9.52268891       9.30697407      16.22199611
Pd       2.69020489      12.87378089      16.61892707
Pd       1.75166849       5.62244427      16.30431012
Pd      12.47302331       9.23903023      16.01708021
Pd       9.69900973       1.42774240      15.71383065
Pd       5.04358796       1.54779341      16.86572586
Pd       5.69837864       9.09426483      16.52782147
Pd       5.43970933      12.73838241      16.42725934
Pd      11.04982098      12.54072775      16.43266637
Pd       1.60965249       2.27792982      16.85751917
Pd       4.50818177       4.21403283      16.36392315
Pd      11.79852331       3.26956146      16.58228443
Pd       1.52927545       9.19562925      16.22142352
Pd       6.99763564       6.47255705      16.67550276
Pd       7.90597897       0.20202665      17.15741175
Pd      10.13040382       6.64434230      16.44344579
Pd       7.89319983       3.53470664      16.76717128
Pd       0.15033683      13.69394290      16.89364895
Pd       4.05200062       6.93743802      15.91357788
O        9.83197638       2.94748030      16.98381581
O       10.96285753      10.62869333      15.87980171
O       12.96590937      12.55382284      15.60783556
O       12.14683357       1.37067094      17.26840014
O       10.96459005       0.62157666      17.23494544
O        5.39051119       7.38925804      17.37366521
O        4.23736451       1.41354345      14.88587639
O        0.80814080       1.13513119      18.17092631
O        9.18497548      12.42368718      17.19740013
O        2.32567444      11.01460283      16.04577032
O        3.16435999       0.96737137      17.21443745
O        2.62607023       3.79089894      15.91789345
O        8.51643716       5.32230181      16.04703485
O        8.62333982       7.79536223      17.03720466
O        6.23403457       4.64014712      17.09302947
O       13.74776310       3.34913304      16.12187909
O       11.50986253       5.24920661      16.01929516
O        0.94743033       7.38764654      16.82659998
O        6.92151838       1.88131411      17.42574034
O        6.00379483      10.86044362      15.79760488
