115
Lattice="13.75323 0.0 0.0 0.0 13.75323 0.0 0.0 0.0 23.89" Properties=species:S:1:pos:R:3 entry_id=15 rank=18 energy=-572.9185791015625 parent_id=14 pbc="T T F"
Pd       0.00000000       0.00000000      10.00000000
Pd       2.75064538       0.00000000      10.00000000
Pd       5.50129076       0.00000000      10.00000000
Pd       8.25193614       0.00000000      10.00000000
Pd      11.00258152       0.00000000      10.00000000
Pd       0.00000000       2.75064538      10.00000000
Pd       2.75064538       2.75064538      10.00000000
Pd       5.50129076       2.75064538      10.00000000
Pd       8.25193614       2.75064538      10.00000000
Pd      11.00258152       2.75064538      10.00000000
Pd       0.00000000       5.50129076      10.00000000
Pd       2.75064538       5.50129076      10.00000000
Pd       5.50129076       5.50129076      10.00000000
Pd       8.25193614       5.50129076      10.00000000
Pd      11.00258152       5.50129076      10.00000000
Pd       0.00000000       8.25193614      10.00000000
Pd       2.75064538       8.25193614      10.00000000
Pd       5.50129076       8.25193614      10.00000000
Pd       8.25193614       8.25193614      10.00000000
Pd      11.00258152       8.25193614      10.00000000
Pd       0.00000000      11.00258152      10.00000000
Pd       2.75064538      11.00258152      10.00000000
Pd       5.50129076      11.00258152      10.00000000
Pd       8.25193614      11.00258152      10.00000000
Pd      11.00258152      11.00258152      10.00000000
Pd       1.37301645       1.42115539      11.99715234
Pd       4.09364911       1.39670023      11.94908422
Pd       6.83412786       1.37353327      11.92592573
Pd       9.57512057       1.39592898      11.89594876
Pd      12.38684272       1.37174114      11.92044161
Pd       1.36114195       4.11498168      12.01707239
Pd       4.08263582       4.15787943      11.96357946
Pd       6.81976348       4.14616640      11.96000677
Pd       9.56728621       4.13975942      11.94281254
Pd      12.36578195       4.13265160      11.93417299
Pd       1.37110082       6.89256210      11.94010419
Pd       4.13935064       6.87026939      11.96482277
Pd       6.87097415       6.85831372      11.95140951
Pd       9.64205429       6.82915781      11.94515418
Pd      12.39111484       6.85622887      11.94896407
Pd       1.36974331       9.67018594      12.00058112
Pd       4.11777592       9.66324146      11.95099537
Pd       6.89476706       9.64088005      11.95142944
Pd       9.64982872       9.59779534      11.89439304
Pd      12.42487279       9.60955999      11.94161946
Pd       1.41922008      12.42704288      11.99960078
Pd       4.11756712      12.41402986      11.96037852
Pd       6.86816975      12.39901143      11.97280504
Pd       9.63028672      12.36702810      11.91406436
Pd      12.41039734      12.34849124      11.97586877
Pd       0.03731006       0.11485541      13.93138999
Pd       2.77055612       0.01951615      14.10521768
Pd       5.56564207       0.03894463      13.98778367
Pd       8.22993568      13.70111507      13.93019910
Pd      10.99356573       0.06149529      13.88792342
Pd      13.62253028       2.78944825      14.12991283
Pd       2.63851172       2.81326128      14.07021287
Pd       5.49104838       2.77208159      13.88677012
Pd       8.19436687       2.74415681      13.85138098
Pd      10.92666796       2.73579216      13.87468980
Pd       0.03953123       5.48428534      13.94233861
Pd       2.75502518       5.55819898      13.99530760
Pd       5.53273472       5.64410204      14.06193700
Pd       8.28549983       5.49066942      13.94405580
Pd      11.02504274       5.41806207      13.99716076
Pd      13.67108749       8.27454308      14.01548209
Pd       2.68466380       8.33058561      13.97907476
Pd       5.45710847       8.36604223      14.00479376
Pd       8.18874650       8.20205329      13.94309575
Pd      10.91253002       8.13398103      14.06811159
Pd       0.10867230      11.15510237      14.04165422
Pd       2.79053240      11.05608895      14.04924589
Pd       5.47443570      11.05605078      13.89904750
Pd       6.67358518      10.63945712      16.26958286
Pd       8.18081605      10.95964055      13.91422593
Pd      12.53188497       6.63127977      16.07274548
Pd       8.96999323       9.10353210      16.35438647
Pd       2.02452697      13.05982477      16.93738443
Pd       1.38666017       5.95509677      16.39195576
Pd      11.17182704      10.82332684      13.95212272
Pd       9.25668609       1.44054873      15.79271490
Pd       4.57872716       1.58802813      17.05603812
Pd       3.99145219       9.78201672      16.16998028
Pd       4.63706238      12.52370104      16.05981448
Pd       9.65773042      12.40108985      16.39454884
Pd       1.19781720       2.32502227      16.89187624
Pd       3.81246583       4.19150547      16.28638830
Pd      11.34546056       3.09016657      16.59803702
Pd       0.90508074       9.70929859      16.13559989
Pd       6.65892108       7.05993307      16.29770993
Pd       7.03749495       0.08275107      16.68020480
Pd       9.76087195       6.45134898      16.66004231
Pd       7.44702806       3.61583569      16.41611239
Pd      12.82433495      13.30891551      16.41748499
Pd       3.91882546       6.97016708      15.97091810
O        9.33710145       3.02170396      17.03331661
O        9.59913677      10.66069897      15.37707565
O       11.37785514      12.47754289      15.42404489
O       11.51136807       1.00010215      17.21376985
O       10.18143985       0.45003520      17.37058855
O        5.16980453       8.25188962      16.90893583
O        4.08407054       1.50762153      14.96469457
O        0.47793414       0.50195280      17.30234713
O        7.80960556      12.08490944      17.10261438
O        0.58116484      11.71489189      16.12343471
O        2.77397417       1.15608361      17.55106597
O        2.02506013       4.18845408      17.02626824
O        8.00091958       5.49930484      15.97721358
O        8.35801391       7.61678921      17.41602159
O        5.64196530       4.12011099      15.52873576
O       13.29494758       3.13159954      16.09984569
O       11.16330520       5.15504557      16.09240241
O        0.45455853       7.74600176      16.11110385
O        6.49400901       1.93718920      16.99088285
O        3.35306138      11.51749701      17.13688973
