115
Lattice="13.75323 0.0 0.0 0.0 13.75323 0.0 0.0 0.0 23.89" Properties=species:S:1:pos:R:3 entry_id=26 rank=16 energy=-573.0106201171875 parent_id=25 pbc="T T F"
Pd       0.00000000       0.00000000      10.00000000
Pd       2.75064538       0.00000000      10.00000000
Pd       5.50129076       0.00000000      10.00000000
Pd       8.25193614       0.00000000      10.00000000
Pd      11.00258152       0.00000000      10.00000000
Pd       0.00000000       2.75064538      10.00000000
Pd       2.75064538       2.75064538      10.00000000
Pd       5.50129076       2.75064538      10.00000000
Pd       8.25193614       2.75064538      10.00000000
Pd      11.00258152       2.75064538      10.00000000
Pd       0.00000000       5.50129076      10.00000000
Pd       2.75064538       5.50129076      10.00000000
Pd       5.50129076       5.50129076      10.00000000
Pd       8.25193614       5.50129076      10.00000000
Pd      11.00258152       5.50129076      10.00000000
Pd       0.00000000       8.25193614      10.00000000
Pd       2.75064538       8.25193614      10.00000000
Pd       5.50129076       8.25193614      10.00000000
Pd       8.25193614       8.25193614      10.00000000
Pd      11.00258152       8.25193614      10.00000000
Pd       0.00000000      11.00258152      10.00000000
Pd       2.75064538      11.00258152      10.00000000
Pd       5.50129076      11.00258152      10.00000000
Pd       8.25193614      11.00258152      10.00000000
Pd      11.00258152      11.00258152      10.00000000
Pd       1.35255514       1.42078234      11.97735934
Pd       4.09925515       1.40038683      11.93179274
Pd       6.83355999       1.36884380      11.93204641
Pd       9.57512057       1.39592898      11.89594876
Pd      12.38684272       1.37174114      11.92044161
Pd       1.35837126       4.11031485      12.00257021
Pd       4.08777062       4.15006206      11.94858880
Pd       6.82764334       4.14083780      11.95428766
Pd       9.56728621       4.13975942      11.94281254
Pd      12.36578195       4.13265160      11.93417299
Pd       1.37110082       6.89256210      11.94010419
Pd       4.13935064       6.87026939      11.96482277
Pd       6.87097415       6.85831372      11.95140951
Pd       9.64205429       6.82915781      11.94515418
Pd      12.39111484       6.85622887      11.94896407
Pd       1.37861666       9.66047086      12.01188045
Pd       4.11777592       9.66324146      11.95099537
Pd       6.89476706       9.64088005      11.95142944
Pd       9.64982872       9.59779534      11.89439304
Pd      12.42487279       9.60955999      11.94161946
Pd       1.40146083      12.41560834      11.97580066
Pd       4.12933210      12.40030231      11.94787731
Pd       6.86816975      12.39901143      11.97280504
Pd       9.63028672      12.36702810      11.91406436
Pd      12.39957033      12.35363346      11.97165260
Pd       0.01139447       0.09367780      13.93921196
Pd       2.71719569       0.04963414      13.97690087
Pd       5.51867640       0.00992342      13.98643094
Pd       8.19987617      13.70103332      13.93739130
Pd      10.97426577       0.06958633      13.89107267
Pd      13.62404204       2.77073511      14.12218570
Pd       2.65098341       2.78625430      14.04720959
Pd       5.49155730       2.77014697      13.88903951
Pd       8.19681352       2.73667801      13.85491678
Pd      10.92678861       2.73628349      13.87715053
Pd       0.03191380       5.46605858      13.93621737
Pd       2.75097146       5.51570081      13.95818191
Pd       5.54513186       5.60791166      14.03037673
Pd       8.26813899       5.49733224      13.95782880
Pd      11.01981383       5.41713395      13.97576056
Pd      13.69435447       8.24825146      14.01757534
Pd       2.71772608       8.30741931      13.99059227
Pd       5.50132291       8.35112514      14.10263421
Pd       8.19609025       8.20398943      13.93535258
Pd      10.93022813       8.13862163      14.06733796
Pd       0.09188367      11.12657323      14.03071377
Pd       2.78301385      11.04871679      14.00420578
Pd       5.48797602      11.03560306      13.94820657
Pd       6.72426620      10.52030091      16.30623120
Pd       8.18709327      10.96277588      13.91270509
Pd      12.50593836       6.58652563      16.07359897
Pd       9.06232158       9.05569283      16.32265283
Pd       1.92049269      13.09872962      16.68220683
Pd       1.37404734       5.92642997      16.36100368
Pd      11.16899307      10.83752122      13.93915162
Pd       9.26697701       1.40735658      15.79071327
Pd       4.61275524       1.53173058      17.02146262
Pd       3.88574962       9.79751029      16.35769340
Pd       4.96894800      12.53349505      16.31148654
Pd       9.65593580      12.37245413      16.41764925
Pd       1.18387755       2.29383754      16.84765900
Pd       3.84602077       4.12422119      16.25130630
Pd      11.34570881       3.05009949      16.61794488
Pd       0.75153415       9.69093932      16.18626111
Pd       6.49083519       7.88924053      16.93570282
Pd       7.14217144       0.07438633      16.88360174
Pd       9.69009110       6.35442715      16.57146978
Pd       7.48488204       3.54039845      16.45567019
Pd      12.78004728      13.31602314      16.46687689
Pd       3.94694651       6.84285598      15.89308438
O        9.36170127       2.94479156      17.08580795
O        9.62344452      10.65243405      15.36591341
O       11.35595877      12.50101344      15.42879446
O       11.49549032       0.99014094      17.27145296
O       10.15995010       0.42714837      17.40489551
O        4.57818095       8.17116944      17.20109727
O        4.13999547       1.39769708      14.93110334
O        0.45363248       0.48491233      17.37992166
O        7.83261462      12.02005230      17.18078586
O        0.44169284      11.70806745      16.08846979
O        2.77423153       1.10193233      17.37832042
O        2.03848661       4.14974981      16.94455725
O        8.10526916       5.30566520      15.92742866
O        8.40261041       7.59092234      17.37812701
O        5.69331352       4.09554201      15.54492644
O       13.28053757       3.11435006      16.09428692
O       11.15375503       5.09155674      16.06985416
O        0.41365250       7.71528993      16.13349404
O        6.52703042       1.91242963      17.14456941
O        3.19244118      11.66162039      15.99341814
