115
Lattice="13.75323 0.0 0.0 0.0 13.75323 0.0 0.0 0.0 23.89" Properties=species:S:1:pos:R:3 entry_id=31 rank=4 energy=-573.691650390625 parent_id=30 pbc="T T F"
Pd       0.00000000       0.00000000      10.00000000
Pd       2.75064538       0.00000000      10.00000000
Pd       5.50129076       0.00000000      10.00000000
Pd       8.25193614       0.00000000      10.00000000
Pd      11.00258152       0.00000000      10.00000000
Pd       0.00000000       2.75064538      10.00000000
Pd       2.75064538       2.75064538      10.00000000
Pd       5.50129076       2.75064538      10.00000000
Pd       8.25193614       2.75064538      10.00000000
Pd      11.00258152       2.75064538      10.00000000
Pd       0.00000000       5.50129076      10.00000000
Pd       2.75064538       5.50129076      10.00000000
Pd       5.50129076       5.50129076      10.00000000
Pd       8.25193614       5.50129076      10.00000000
Pd      11.00258152       5.50129076      10.00000000
Pd       0.00000000       8.25193614      10.00000000
Pd       2.75064538       8.25193614      10.00000000
Pd       5.50129076       8.25193614      10.00000000
Pd       8.25193614       8.25193614      10.00000000
Pd      11.00258152       8.25193614      10.00000000
Pd       0.00000000      11.00258152      10.00000000
Pd       2.75064538      11.00258152      10.00000000
Pd       5.50129076      11.00258152      10.00000000
Pd       8.25193614      11.00258152      10.00000000
Pd      11.00258152      11.00258152      10.00000000
Pd       1.36828856       1.41761946      11.95961647
Pd       4.13111201       1.40495284      11.92371870
Pd       6.86763817       1.38530032      11.96571950
Pd       9.57512057       1.39592898      11.89594876
Pd      12.38684272       1.37174114      11.92044161
Pd       1.40325962       4.14396283      12.00507159
Pd       4.13039140       4.15122673      11.98997128
Pd       6.86073710       4.12027724      11.99763115
Pd       9.56728621       4.13975942      11.94281254
Pd      12.36578195       4.13265160      11.93417299
Pd       1.37110082       6.89256210      11.94010419
Pd       4.13935064       6.87026939      11.96482277
Pd       6.87097415       6.85831372      11.95140951
Pd       9.64205429       6.82915781      11.94515418
Pd      12.39111484       6.85622887      11.94896407
Pd       1.38168554       9.64171459      11.97027287
Pd       4.11777592       9.66324146      11.95099537
Pd       6.89476706       9.64088005      11.95142944
Pd       9.64982872       9.59779534      11.89439304
Pd      12.42487279       9.60955999      11.94161946
Pd       1.37596842      12.40510727      11.98471749
Pd       4.12076817      12.38324115      11.94735768
Pd       6.86816975      12.39901143      11.97280504
Pd       9.63028672      12.36702810      11.91406436
Pd      12.38043527      12.37291390      12.00131774
Pd       0.02379100       0.04530857      13.98282432
Pd       2.75509158       0.03095759      13.92255186
Pd       5.47968899      13.72120397      13.98911258
Pd       8.24222173      13.70288635      13.88880669
Pd      10.92813948      13.72828631      13.93176104
Pd      10.99544191       2.68968313      13.96613530
Pd      13.69987773       2.78441970      13.95880343
Pd       2.73624112       2.80758495      14.04599990
Pd       5.60678255       2.70367533      13.96024200
Pd       8.33649338       2.71717373      14.06553716
Pd       0.06445211       5.50738298      13.98166729
Pd       2.75218832       5.54484811      14.06105313
Pd       5.51870144       5.66262628      14.02991343
Pd       8.27593644       5.47926892      13.94980308
Pd      11.03389026       5.42300875      13.93150251
Pd      13.69000338       8.23966717      13.95727879
Pd       2.70745184       8.26943542      13.96740362
Pd       5.47882536       8.36527086      13.97183066
Pd       8.24762530       8.24096461      13.99141747
Pd      10.98052152       8.18075617      14.07799673
Pd      13.69450394      11.03929059      14.00596050
Pd       2.80249333      11.03188468      13.99263205
Pd       5.51365021      11.07401593      13.95028906
Pd       6.90456155      10.01416149      15.97776528
Pd       8.26606295      10.96273444      13.87361315
Pd      12.75087077       6.72771380      16.16818454
Pd       9.52416506       9.34612986      16.32147691
Pd       2.10635234      12.89122636      16.45935527
Pd       1.52489628       5.81336770      16.67441692
Pd      11.01500156      10.92786391      13.95837848
Pd       9.52981365       1.86353988      16.67225086
Pd       4.50855756       1.52968646      17.10801863
Pd       4.09963129       9.83575966      16.10449526
Pd       5.53312315      12.42902294      16.60901845
Pd       8.92021295      12.08378861      16.26636638
Pd       1.32502735       2.23124045      16.60307011
Pd       3.79547776       4.13872863      16.34613311
Pd      11.74644762       3.40593426      16.66524847
Pd       1.20597561       9.31458804      16.09195788
Pd       6.72060428       7.21678106      16.30381730
Pd       7.09734543       1.09790692      15.89155193
Pd       9.91085854       6.58996820      16.43121187
Pd       7.22956236       3.87445890      16.60933149
Pd      12.27555169       0.20435113      16.20134634
Pd       3.97444197       6.98428571      15.99414712
O        8.90925002       3.49263408      17.46785516
O       10.51487355      10.97573612      15.91059143
O       10.29441516       0.08697186      16.01040850
O       12.05100246       1.69974494      17.71941284
O       10.82708604       1.50890866      18.31493245
O        5.18992489       8.32189803      16.96273316
O        4.07311632       1.37620419      14.92703528
O        0.49845348       0.37933274      16.06996673
O        7.35146689      13.09144945      16.86799442
O        1.36475637      11.21275102      15.52989725
O        2.67032399       0.88746579      17.31395027
O        2.09887747       3.99234043      17.24050290
O        7.97597102       5.63698621      15.96296316
O        8.59064407       7.84742649      17.15232464
O        5.55518656       4.17604435      15.48783127
O       13.62633446       3.38565575      15.88256445
O       11.35009918       5.28501912      15.96289179
O        0.65433056       7.58801267      16.79230584
O        6.32336552       2.23408268      17.36352512
O        3.71953703      11.73374135      16.81394441
