115
Lattice="13.75323 0.0 0.0 0.0 13.75323 0.0 0.0 0.0 23.89" Properties=species:S:1:pos:R:3 entry_id=13 rank=22 energy=-572.35595703125 parent_id=12 pbc="T T F"
Pd       0.00000000       0.00000000      10.00000000
Pd       2.75064538       0.00000000      10.00000000
Pd       5.50129076       0.00000000      10.00000000
Pd       8.25193614       0.00000000      10.00000000
Pd      11.00258152       0.00000000      10.00000000
Pd       0.00000000       2.75064538      10.00000000
Pd       2.75064538       2.75064538      10.00000000
Pd       5.50129076       2.75064538      10.00000000
Pd       8.25193614       2.75064538      10.00000000
Pd      11.00258152       2.75064538      10.00000000
Pd       0.00000000       5.50129076      10.00000000
Pd       2.75064538       5.50129076      10.00000000
Pd       5.50129076       5.50129076      10.00000000
Pd       8.25193614       5.50129076      10.00000000
Pd      11.00258152       5.50129076      10.00000000
Pd       0.00000000       8.25193614      10.00000000
Pd       2.75064538       8.25193614      10.00000000
Pd       5.50129076       8.25193614      10.00000000
Pd       8.25193614       8.25193614      10.00000000
Pd      11.00258152       8.25193614      10.00000000
Pd       0.00000000      11.00258152      10.00000000
Pd       2.75064538      11.00258152      10.00000000
Pd       5.50129076      11.00258152      10.00000000
Pd       8.25193614      11.00258152      10.00000000
Pd      11.00258152      11.00258152      10.00000000
Pd       1.36313430       1.42278104      11.98430382
Pd       4.08301759       1.40210612      11.94246201
Pd       6.83055887       1.37363579      11.95031864
Pd       9.57512057       1.39592898      11.89594876
Pd      12.38684272       1.37174114      11.92044161
Pd       1.34959736       4.12320699      11.97889798
Pd       4.09029383       4.14432989      11.96076984
Pd       6.81872663       4.13416145      11.97947471
Pd       9.56728621       4.13975942      11.94281254
Pd      12.36578195       4.13265160      11.93417299
Pd       1.37110082       6.89256210      11.94010419
Pd       4.13935064       6.87026939      11.96482277
Pd       6.87097415       6.85831372      11.95140951
Pd       9.64205429       6.82915781      11.94515418
Pd      12.39111484       6.85622887      11.94896407
Pd       1.37224901       9.65870222      11.98746943
Pd       4.11777592       9.66324146      11.95099537
Pd       6.89476706       9.64088005      11.95142944
Pd       9.64982872       9.59779534      11.89439304
Pd      12.42487279       9.60955999      11.94161946
Pd       1.40391508      12.40894881      11.99146879
Pd       4.12548573      12.39838319      11.95853408
Pd       6.86816975      12.39901143      11.97280504
Pd       9.63028672      12.36702810      11.91406436
Pd      12.41953476      12.33554369      12.00218250
Pd       0.07596388       0.05417544      13.93853208
Pd       2.77344331       0.06071304      14.01781318
Pd       5.54013510       0.01096730      14.00483541
Pd       8.21081844      13.70919949      13.96024881
Pd      10.97433825       0.11084317      13.85588474
Pd      13.55240639       2.75506526      14.08499884
Pd       2.56027047       2.84929793      14.06653681
Pd       5.43410072       2.80925016      13.93804923
Pd       8.14344277       2.74108838      13.90521132
Pd      10.86960386       2.76841124      13.89531674
Pd       0.05158584       5.48545140      13.94071510
Pd       2.77549866       5.57993189      13.91074176
Pd       5.56505251       5.53297266      14.07164012
Pd       8.30786900       5.48813799      13.94501101
Pd      11.05894622       5.44953673      13.99692113
Pd      13.65087988       8.24885677      13.98116765
Pd       2.69972177       8.30818652      13.95290880
Pd       5.48144926       8.26178951      14.00791893
Pd       8.20238354       8.20857641      13.94933577
Pd      10.92587671       8.15636242      14.08777378
Pd       0.09833966      11.04863907      14.13443346
Pd       2.83497013      11.07193394      14.01398656
Pd       5.52224520      11.00625568      13.91618958
Pd       6.87383317      11.35082771      16.63671319
Pd       8.21607927      10.98070177      13.94669984
Pd      12.71727597       6.61940499      16.17194412
Pd       8.87476079       9.22344796      16.34573106
Pd       2.04517189      12.99668901      16.55077250
Pd       1.46581168       5.67125747      16.34083017
Pd      11.17126170      10.84072622      13.96113055
Pd       9.25640587       1.41420033      15.83841520
Pd       4.63595592       1.68195418      17.03073903
Pd       5.19971834       9.11046309      16.63829965
Pd       4.68230413      12.85334289      16.44345839
Pd       9.86502817      12.48460652      16.50829139
Pd       1.18886574       2.08361243      16.75020287
Pd       4.04502588       4.22403418      16.19440541
Pd      11.41121790       3.10666631      16.61881205
Pd       1.25279497       9.21471570      16.11610942
Pd       6.86567758       6.52304047      16.66917483
Pd       7.22753678       0.30690433      17.26479580
Pd       9.95813101       6.62046702      16.61689443
Pd       7.61974524       3.63682590      16.59685407
Pd      12.89839390      13.35633523      16.36679021
Pd       3.82493854       6.95032272      15.94003215
O        9.46300332       2.95618209      17.10401607
O        9.61749307      10.77209341      15.44471357
O       11.44972265      12.54721671      15.34157358
O       11.58697027       1.07739253      17.31001116
O       10.30327296       0.50430461      17.46089642
O        5.21443496       7.34190416      17.39918423
O        4.20367107       1.44789650      14.93457500
O        0.49103272       0.36113497      17.46270415
O        8.22326003      12.37566800      17.61182906
O        1.61931311      11.13889123      15.70946038
O        2.80887816       1.00639169      17.28619522
O        2.14191144       3.77608310      16.14045811
O        8.38629967       5.39913918      15.99352486
O        8.41743655       7.66584520      17.37680546
O        5.92377220       4.75585691      16.12639020
O       13.32005905       3.08086916      16.08298473
O       11.27889945       5.20422163      16.06574038
O        0.66316892       7.45031940      16.74467571
O        6.52067815       2.12962869      17.34632330
O        5.06368706      10.90545829      15.92123365
