115
Lattice="13.75323 0.0 0.0 0.0 13.75323 0.0 0.0 0.0 23.89" Properties=species:S:1:pos:R:3 entry_id=4 rank=27 energy=-571.4329833984375 parent_id=1 pbc="T T F"
Pd       0.00000000       0.00000000      10.00000000
Pd       2.75064538       0.00000000      10.00000000
Pd       5.50129076       0.00000000      10.00000000
Pd       8.25193614       0.00000000      10.00000000
Pd      11.00258152       0.00000000      10.00000000
Pd       0.00000000       2.75064538      10.00000000
Pd       2.75064538       2.75064538      10.00000000
Pd       5.50129076       2.75064538      10.00000000
Pd       8.25193614       2.75064538      10.00000000
Pd      11.00258152       2.75064538      10.00000000
Pd       0.00000000       5.50129076      10.00000000
Pd       2.75064538       5.50129076      10.00000000
Pd       5.50129076       5.50129076      10.00000000
Pd       8.25193614       5.50129076      10.00000000
Pd      11.00258152       5.50129076      10.00000000
Pd       0.00000000       8.25193614      10.00000000
Pd       2.75064538       8.25193614      10.00000000
Pd       5.50129076       8.25193614      10.00000000
Pd       8.25193614       8.25193614      10.00000000
Pd      11.00258152       8.25193614      10.00000000
Pd       0.00000000      11.00258152      10.00000000
Pd       2.75064538      11.00258152      10.00000000
Pd       5.50129076      11.00258152      10.00000000
Pd       8.25193614      11.00258152      10.00000000
Pd      11.00258152      11.00258152      10.00000000
Pd       1.31330515       1.37572139      12.04935720
Pd       4.07407380       1.38826640      11.93349505
Pd       6.82837501       1.37940119      11.91412447
Pd       9.57512057       1.39592898      11.89594876
Pd      12.38684272       1.37174114      11.92044161
Pd       1.36350567       4.09668985      12.00718433
Pd       4.08489626       4.14839036      11.95490672
Pd       6.83562970       4.15071675      11.95624841
Pd       9.56728621       4.13975942      11.94281254
Pd      12.36578195       4.13265160      11.93417299
Pd       1.37110082       6.89256210      11.94010419
Pd       4.13935064       6.87026939      11.96482277
Pd       6.87097415       6.85831372      11.95140951
Pd       9.64205429       6.82915781      11.94515418
Pd      12.39111484       6.85622887      11.94896407
Pd       1.38282042       9.67021895      12.01839525
Pd       4.11777592       9.66324146      11.95099537
Pd       6.89476706       9.64088005      11.95142944
Pd       9.64982872       9.59779534      11.89439304
Pd      12.42487279       9.60955999      11.94161946
Pd       1.36171909      12.40689665      12.04570331
Pd       4.10146772      12.37993438      11.98136462
Pd       6.86816975      12.39901143      11.97280504
Pd       9.63028672      12.36702810      11.91406436
Pd      12.40044313      12.35377652      11.97137644
Pd      13.66912028      13.67915414      14.14912996
Pd       2.69510031       0.06847412      14.03946693
Pd       5.51256713      13.72853991      13.97271952
Pd       8.23428601       0.04048411      13.85555201
Pd      10.96661584       0.04042092      13.82564545
Pd      13.66682708       2.67501462      14.10042900
Pd       2.67633367       2.82081955      14.08481033
Pd       5.52577675       2.74785678      13.86606307
Pd       8.22811498       2.78213125      13.85814829
Pd      10.98831379       2.75128198      13.84285104
Pd       0.03823832       5.39564384      13.99043593
Pd       2.73630758       5.55301548      13.97755507
Pd       5.53337950       5.55893198      14.03616510
Pd       8.25746208       5.54287629      13.99466490
Pd      11.02202455       5.43005534      13.96070070
Pd       0.07988485       8.15161433      13.96044827
Pd       2.81011826       8.31474982      13.97322936
Pd       5.55441078       8.25279656      13.96807775
Pd       8.29066844       8.33116135      13.99065018
Pd      11.05064967       8.21998225      13.89958902
Pd      13.68571457      10.94863591      14.10084367
Pd       2.73963107      11.09882232      14.06509365
Pd       5.50047945      10.97843442      13.97602046
Pd       8.23091581      11.12144808      14.17759021
Pd      10.93138092      10.96228767      13.86817687
Pd      12.52561268       6.56364096      16.11089240
Pd       9.07213630       9.61114680      16.40221217
Pd       2.36921356      13.15767842      16.65827514
Pd       1.41306190       6.15459491      16.39661641
Pd      12.41868408       9.25673788      16.07562461
Pd       9.50694465       1.46957910      15.69312367
Pd       4.68063152       1.55852448      16.99662868
Pd       5.46408903       9.20568806      16.62024403
Pd       4.99975791      12.73716686      16.47108156
Pd      10.71811276      12.47081399      16.20521345
Pd       1.26625045       2.51565992      16.69814141
Pd       3.90596748       4.20816450      16.27320284
Pd      11.41495799       3.24916611      16.60645278
Pd       1.45828084       9.62673127      16.06489462
Pd       7.30942552       7.09383319      16.53898053
Pd       7.48679419      13.72941955      16.47207877
Pd       9.83689228       7.02509101      15.96077574
Pd       7.51890281       3.47512628      16.45504518
Pd      13.57537895       0.19620404      17.00800225
Pd       3.99432212       6.91737349      15.90852922
O        9.41321921       2.95892122      17.04458519
O       10.82942938      10.44308961      15.91394826
O       12.74139017      12.65130193      15.82490147
O       11.72885502       1.33134205      17.37194640
O       10.56857803       0.52639501      17.19206965
O        5.33770563       7.35746946      17.29137309
O        4.18868100       1.43526331      14.88655824
O        0.45367253       1.51073863      18.17998465
O        8.65519331      12.15126128      16.10990933
O        2.46437178      11.28819584      16.07294751
O        2.76910222       1.23546730      17.27300095
O        2.13906452       4.42956775      17.00351933
O        8.08922514       5.33840169      16.01525535
O        7.43780094       8.94831951      17.21048716
O        5.73360507       4.02207113      15.54937084
O       13.36133794       3.41834174      15.98597119
O       11.12196602       5.18213652      16.04063960
O        0.33123183       7.94038540      16.20364297
O        6.65318480       1.70009479      17.01822000
O        5.69443415      10.98709349      15.96560455
