115
Lattice="13.75323 0.0 0.0 0.0 13.75323 0.0 0.0 0.0 23.89" Properties=species:S:1:pos:R:3 entry_id=19 rank=9 energy=-573.2030639648438 parent_id=18 pbc="T T F"
Pd       0.00000000       0.00000000      10.00000000
Pd       2.75064538       0.00000000      10.00000000
Pd       5.50129076       0.00000000      10.00000000
Pd       8.25193614       0.00000000      10.00000000
Pd      11.00258152       0.00000000      10.00000000
Pd       0.00000000       2.75064538      10.00000000
Pd       2.75064538       2.75064538      10.00000000
Pd       5.50129076       2.75064538      10.00000000
Pd       8.25193614       2.75064538      10.00000000
Pd      11.00258152       2.75064538      10.00000000
Pd       0.00000000       5.50129076      10.00000000
Pd       2.75064538       5.50129076      10.00000000
Pd       5.50129076       5.50129076      10.00000000
Pd       8.25193614       5.50129076      10.00000000
Pd      11.00258152       5.50129076      10.00000000
Pd       0.00000000       8.25193614      10.00000000
Pd       2.75064538       8.25193614      10.00000000
Pd       5.50129076       8.25193614      10.00000000
Pd       8.25193614       8.25193614      10.00000000
Pd      11.00258152       8.25193614      10.00000000
Pd       0.00000000      11.00258152      10.00000000
Pd       2.75064538      11.00258152      10.00000000
Pd       5.50129076      11.00258152      10.00000000
Pd       8.25193614      11.00258152      10.00000000
Pd      11.00258152      11.00258152      10.00000000
Pd       1.37011969       1.40772474      11.99899089
Pd       4.09161042       1.38408927      11.95535023
Pd       6.82455939       1.36675460      11.93469850
Pd       9.57512057       1.39592898      11.89594876
Pd      12.38684272       1.37174114      11.92044161
Pd       1.36161320       4.10371177      12.01407179
Pd       4.08639672       4.14412650      11.95661423
Pd       6.82458420       4.14038464      11.96051315
Pd       9.56728621       4.13975942      11.94281254
Pd      12.36578195       4.13265160      11.93417299
Pd       1.37110082       6.89256210      11.94010419
Pd       4.13935064       6.87026939      11.96482277
Pd       6.87097415       6.85831372      11.95140951
Pd       9.64205429       6.82915781      11.94515418
Pd      12.39111484       6.85622887      11.94896407
Pd       1.36453372       9.65893012      12.00429678
Pd       4.11777592       9.66324146      11.95099537
Pd       6.89476706       9.64088005      11.95142944
Pd       9.64982872       9.59779534      11.89439304
Pd      12.42487279       9.60955999      11.94161946
Pd       1.41654310      12.41736716      11.99538433
Pd       4.12879646      12.40925458      11.96203516
Pd       6.86816975      12.39901143      11.97280504
Pd       9.63028672      12.36702810      11.91406436
Pd      12.41318279      12.34570186      11.98350022
Pd       0.02711770       0.09547767      13.93975368
Pd       2.74838622      13.74086203      14.10620002
Pd       5.53512291       0.00547566      14.02885399
Pd       8.21260442      13.69572523      13.91748368
Pd      10.98442729       0.05905353      13.88587701
Pd      13.62356620       2.77361776      14.12730106
Pd       2.64334002       2.77576181      14.07086471
Pd       5.48535038       2.75140819      13.89150517
Pd       8.19277987       2.73720771      13.85456392
Pd      10.92302179       2.72822629      13.87634756
Pd       0.04249162       5.47260732      13.93930253
Pd       2.75242998       5.51909810      13.97737655
Pd       5.52666884       5.60777770      14.05176684
Pd       8.29105397       5.47365840      13.95717812
Pd      11.02646774       5.40408423      14.00000609
Pd      13.66321823       8.25799192      14.02654961
Pd       2.66191314       8.29416713      13.99010921
Pd       5.43079398       8.35409240      14.00494921
Pd       8.21629500       8.20115133      13.90862129
Pd      10.92742991       8.11233973      14.08114622
Pd       0.14116814      11.13556260      14.06563412
Pd       2.81514527      11.04276964      13.99617533
Pd       5.51141137      11.04478988      13.92952107
Pd       6.71245116      10.47414089      16.41960039
Pd       8.19015205      10.95393621      13.91800685
Pd      12.55093127       6.55871512      16.09574952
Pd       9.04360148       9.05463892      16.34044462
Pd       1.98911459      13.00128080      16.98498925
Pd       1.41146702       5.91011793      16.40611350
Pd      11.19830198      10.80350784      13.95570037
Pd       9.23681354       1.40762844      15.79152541
Pd       4.55737474       1.52130696      17.06673249
Pd       3.58640149       9.68550819      16.21448596
Pd       4.60786423      12.36937647      16.08011732
Pd       9.63140984      12.36516859      16.36736505
Pd       1.18747136       2.26594824      16.90346876
Pd       3.80917766       4.14567392      16.29423791
Pd      11.34230809       3.02139050      16.60804677
Pd       0.80856511       9.66384830      16.20574226
Pd       6.78390295       7.05711310      16.11753150
Pd       6.98398827       0.02077702      16.60621428
Pd       9.79753815       6.36802847      16.66338732
Pd       7.43011465       3.54857172      16.43524810
Pd      12.80187906      13.26889132      16.42736560
Pd       3.93821824       6.93476840      15.96153671
O        9.32945828       2.96697406      17.05371341
O        9.62157686      10.62288948      15.35888245
O       11.35865034      12.45927301      15.41064540
O       11.48682992       0.94839138      17.22516698
O       10.14851951       0.40022821      17.36471690
O        5.67550314       8.76918742      16.14242125
O        4.07905956       1.44445172      14.97679824
O        0.45093579       0.45314533      17.32664781
O        7.76459010      12.02704830      17.03716632
O        0.53808871      11.66399893      16.16191484
O        2.75502059       1.09219693      17.57694630
O        2.02302597       4.12938249      17.03157005
O        8.00991105       5.41396771      16.00785211
O        8.41724184       7.56461467      17.38995075
O        5.63559910       4.08827838      15.54081203
O       13.29006178       3.06727889      16.10276472
O       11.18949950       5.07288475      16.09136869
O        0.45127886       7.69202740      16.14336164
O        6.47040305       1.87144770      16.98823081
O        3.28614259      11.45541764      17.20812561
