115
Lattice="13.75323 0.0 0.0 0.0 13.75323 0.0 0.0 0.0 23.89" Properties=species:S:1:pos:R:3 entry_id=30 rank=6 energy=-573.6491088867188 parent_id=29 pbc="T T F"
Pd       0.00000000       0.00000000      10.00000000
Pd       2.75064538       0.00000000      10.00000000
Pd       5.50129076       0.00000000      10.00000000
Pd       8.25193614       0.00000000      10.00000000
Pd      11.00258152       0.00000000      10.00000000
Pd       0.00000000       2.75064538      10.00000000
Pd       2.75064538       2.75064538      10.00000000
Pd       5.50129076       2.75064538      10.00000000
Pd       8.25193614       2.75064538      10.00000000
Pd      11.00258152       2.75064538      10.00000000
Pd       0.00000000       5.50129076      10.00000000
Pd       2.75064538       5.50129076      10.00000000
Pd       5.50129076       5.50129076      10.00000000
Pd       8.25193614       5.50129076      10.00000000
Pd      11.00258152       5.50129076      10.00000000
Pd       0.00000000       8.25193614      10.00000000
Pd       2.75064538       8.25193614      10.00000000
Pd       5.50129076       8.25193614      10.00000000
Pd       8.25193614       8.25193614      10.00000000
Pd      11.00258152       8.25193614      10.00000000
Pd       0.00000000      11.00258152      10.00000000
Pd       2.75064538      11.00258152      10.00000000
Pd       5.50129076      11.00258152      10.00000000
Pd       8.25193614      11.00258152      10.00000000
Pd      11.00258152      11.00258152      10.00000000
Pd       1.35606080       1.41410136      11.96011900
Pd       4.12511496       1.40035677      11.91542863
Pd       6.86882873       1.38354285      11.96003595
Pd       9.57512057       1.39592898      11.89594876
Pd      12.38684272       1.37174114      11.92044161
Pd       1.39135846       4.13803457      11.99801553
Pd       4.12435553       4.14592404      11.98162882
Pd       6.85713994       4.11668543      11.99365679
Pd       9.56728621       4.13975942      11.94281254
Pd      12.36578195       4.13265160      11.93417299
Pd       1.37110082       6.89256210      11.94010419
Pd       4.13935064       6.87026939      11.96482277
Pd       6.87097415       6.85831372      11.95140951
Pd       9.64205429       6.82915781      11.94515418
Pd      12.39111484       6.85622887      11.94896407
Pd       1.39572690       9.65014712      11.99067291
Pd       4.11777592       9.66324146      11.95099537
Pd       6.89476706       9.64088005      11.95142944
Pd       9.64982872       9.59779534      11.89439304
Pd      12.42487279       9.60955999      11.94161946
Pd       1.37964574      12.39707857      11.99587114
Pd       4.11589018      12.37102137      11.94942338
Pd       6.86816975      12.39901143      11.97280504
Pd       9.63028672      12.36702810      11.91406436
Pd      12.38113480      12.37569100      11.99757390
Pd       0.00186307       0.05372806      14.00064249
Pd       2.73213941       0.03357188      13.90025320
Pd       5.47287961      13.70972889      13.95529930
Pd       8.23808522      13.69924452      13.89024679
Pd      10.92281096      13.71909754      13.92217061
Pd      13.68836908       2.79611315      13.97490092
Pd       2.72034907       2.79623089      14.03826470
Pd       5.59443435       2.69018238      13.94835841
Pd       8.32386928       2.70487631      14.06537452
Pd      10.98606296       2.68304486      13.95989370
Pd       0.05246495       5.51620238      13.97800466
Pd       2.72993011       5.51963533      14.03122056
Pd       5.50810521       5.64587959      14.01599938
Pd       8.26974377       5.47353619      13.94489577
Pd      11.03162437       5.41958943      13.93025904
Pd      13.67737956       8.24346125      13.96477153
Pd       2.70183583       8.26221725      13.97383370
Pd       5.46136299       8.34789392      13.99907225
Pd       8.23161962       8.23597594      13.99140269
Pd      10.96728696       8.17043453      14.08725004
Pd      13.69555120      11.04129367      13.98313138
Pd       2.85503866      11.01745649      14.06702221
Pd       5.53927927      11.03781880      13.93290233
Pd       6.93278851       9.98819558      15.95117893
Pd       8.28438062      10.96412837      13.85846058
Pd      12.72748416       6.71242419      16.17075661
Pd       9.52508771       9.31482683      16.32917790
Pd       2.04309548      12.85911439      16.39073286
Pd       1.48197213       5.74377595      16.68261801
Pd      11.02002491      10.91366488      13.95911408
Pd       9.49126205       1.83627188      16.63695933
Pd       4.48609680       1.48777597      17.07397412
Pd       4.21157841       9.74285674      16.37033398
Pd       5.55958652      12.40268497      16.47244742
Pd       8.90721212      12.05342324      16.27914812
Pd       1.28274437       2.18040300      16.61065370
Pd       3.76919944       4.08917278      16.33609588
Pd      11.69898229       3.38001353      16.67456201
Pd       1.20719804       9.25151453      16.11434576
Pd       6.67261563       7.20223827      16.34416854
Pd       7.06430031       1.06538922      15.89303122
Pd       9.88380394       6.55993744      16.42949375
Pd       7.20719265       3.86038706      16.58501021
Pd      12.21526656       0.15572248      16.21626443
Pd       3.90407548       6.88834278      15.96474865
O        8.90305328       3.48450156      17.42007463
O       10.50594325      10.94898540      15.90998427
O       10.23777280       0.04604182      15.99817237
O       11.98010882       1.66426466      17.72623663
O       10.74924866       1.46633223      18.30350431
O        5.03962907       8.10061693      17.08718114
O        4.05897289       1.35668783      14.91453741
O        0.42687113       0.34244921      16.11980989
O        7.34255813      13.06157687      16.89912214
O        1.29688816      11.14404856      15.53064062
O        2.65100937       0.82811010      17.26636689
O        2.07739598       3.92923295      17.23905291
O        7.94796786       5.63237150      15.95153507
O        8.57277602       7.82299210      17.15176697
O        5.52796857       4.15650571      15.47444965
O       13.58358778       3.34451383      15.91402366
O       11.32890728       5.26290082      15.96425517
O        0.64737115       7.53221885      16.81758433
O        6.29296961       2.22028161      17.35021211
O        3.73755596      11.70390357      16.27813173
