115
Lattice="13.75323 0.0 0.0 0.0 13.75323 0.0 0.0 0.0 23.89" Properties=species:S:1:pos:R:3 entry_id=32 rank=1 energy=-573.730712890625 parent_id=31 pbc="T T F"
Pd       0.00000000       0.00000000      10.00000000
Pd       2.75064538       0.00000000      10.00000000
Pd       5.50129076       0.00000000      10.00000000
Pd       8.25193614       0.00000000      10.00000000
Pd      11.00258152       0.00000000      10.00000000
Pd       0.00000000       2.75064538      10.00000000
Pd       2.75064538       2.75064538      10.00000000
Pd       5.50129076       2.75064538      10.00000000
Pd       8.25193614       2.75064538      10.00000000
Pd      11.00258152       2.75064538      10.00000000
Pd       0.00000000       5.50129076      10.00000000
Pd       2.75064538       5.50129076      10.00000000
Pd       5.50129076       5.50129076      10.00000000
Pd       8.25193614       5.50129076      10.00000000
Pd      11.00258152       5.50129076      10.00000000
Pd       0.00000000       8.25193614      10.00000000
Pd       2.75064538       8.25193614      10.00000000
Pd       5.50129076       8.25193614      10.00000000
Pd       8.25193614       8.25193614      10.00000000
Pd      11.00258152       8.25193614      10.00000000
Pd       0.00000000      11.00258152      10.00000000
Pd       2.75064538      11.00258152      10.00000000
Pd       5.50129076      11.00258152      10.00000000
Pd       8.25193614      11.00258152      10.00000000
Pd      11.00258152      11.00258152      10.00000000
Pd       1.35230664       1.42408381      11.96909136
Pd       4.11149132       1.41243162      11.93339827
Pd       6.83697543       1.39046259      11.95751173
Pd       9.57512057       1.39592898      11.89594876
Pd      12.38684272       1.37174114      11.92044161
Pd       1.38961816       4.13980054      12.01639118
Pd       4.12342479       4.14881052      12.00049659
Pd       6.84904685       4.12857870      12.00547615
Pd       9.56728621       4.13975942      11.94281254
Pd      12.36578195       4.13265160      11.93417299
Pd       1.37110082       6.89256210      11.94010419
Pd       4.13935064       6.87026939      11.96482277
Pd       6.87097415       6.85831372      11.95140951
Pd       9.64205429       6.82915781      11.94515418
Pd      12.39111484       6.85622887      11.94896407
Pd       1.37001801       9.65482924      11.99059637
Pd       4.11777592       9.66324146      11.95099537
Pd       6.89476706       9.64088005      11.95142944
Pd       9.64982872       9.59779534      11.89439304
Pd      12.42487279       9.60955999      11.94161946
Pd       1.37211644      12.40602463      11.99861246
Pd       4.11532278      12.37644675      11.94197264
Pd       6.86816975      12.39901143      11.97280504
Pd       9.63028672      12.36702810      11.91406436
Pd      12.40501473      12.35088113      11.97826140
Pd       0.04947797       0.12324633      14.00677111
Pd       2.72898889       0.02460132      13.93015441
Pd       5.42084509      13.70797349      13.96627748
Pd       8.15138569      13.71947446      13.84571818
Pd      11.08959288      13.74209012      13.84672003
Pd      10.94779337       2.72247673      13.93377112
Pd      13.63320497       2.84148925      14.02001933
Pd       2.68032473       2.80415383      14.05766389
Pd       5.57238552       2.71214116      14.00450049
Pd       8.27128644       2.74401779      14.01096975
Pd       0.08631443       5.53834766      13.98917158
Pd       2.78328912       5.53365818      14.05414001
Pd       5.55869794       5.61906004      14.07994742
Pd       8.30669767       5.49539870      13.97119998
Pd      11.06281582       5.44010290      13.93499262
Pd      13.69748315       8.26679172      13.96844191
Pd       2.71204853       8.25597336      13.96939150
Pd       5.48958815       8.33305189      13.94739999
Pd       8.27715982       8.24920145      13.97912313
Pd      11.01228975       8.18961348      14.04683748
Pd      13.63801916      11.09584644      14.09256170
Pd       2.81121340      11.02111385      13.98145562
Pd       5.53186602      11.05728743      13.96870689
Pd       6.90588561       9.89428717      15.98834309
Pd       8.25332220      10.96362888      13.91530691
Pd      12.75930686       6.70428397      16.19468152
Pd       9.69574502       9.51728748      16.20775008
Pd       2.03341221      12.82988550      16.43916323
Pd       1.53181242       5.72218308      16.61342107
Pd      10.97104439      10.92364860      13.98029091
Pd       9.54809709       1.64057649      16.24990462
Pd       4.45774730       1.51798174      17.07359347
Pd       4.08562927       9.79717773      16.07937040
Pd       5.47558797      12.36394909      16.59640197
Pd       8.88068516      12.05858685      16.37546011
Pd       1.12683897       2.12110938      16.57083595
Pd       3.83355635       4.08763314      16.32446975
Pd      11.49172098       3.43484304      16.71265122
Pd       1.22803048       9.23315778      16.12671332
Pd       6.77299948       7.11567416      16.25216276
Pd       6.94985080       1.06943589      15.90606668
Pd       9.90945174       6.77368635      16.37593697
Pd       7.46579262       3.76255621      16.61909862
Pd      12.33729867      12.69697934      16.09020329
Pd       4.00770467       6.97133897      15.99407230
O        9.41615081       3.29736534      17.27548276
O       10.74241938      11.32415171      16.02493033
O        9.61842236      13.71301734      15.26715236
O       11.98431397       1.72629432      17.69581859
O       11.24525669       0.69277384      17.25059994
O        5.31077180       8.32993836      16.88974560
O        4.01417386       1.37807245      14.93629113
O        0.28854467       0.10347155      16.07672669
O        7.26526655      13.04364067      16.89657942
O        1.38329984      11.11458104      15.52506456
O        2.57297689       0.86288849      17.22670143
O        2.06315372       3.86920408      17.08314894
O        8.10906541       5.58745323      16.01629680
O        8.60308161       8.08292890      17.02056964
O        5.67112278       4.16118116      15.58961248
O       13.38198755       3.30838312      15.96872600
O       11.26250120       5.36328285      15.98735860
O        0.69183794       7.50211645      16.82001153
O        6.31959513       2.22837777      17.40237012
O        3.66630931      11.69146376      16.79884618
