115
Lattice="13.75323 0.0 0.0 0.0 13.75323 0.0 0.0 0.0 23.89" Properties=species:S:1:pos:R:3 entry_id=33 rank=2 energy=-573.7255859375 parent_id=32 pbc="T T F"
Pd       0.00000000       0.00000000      10.00000000
Pd       2.75064538       0.00000000      10.00000000
Pd       5.50129076       0.00000000      10.00000000
Pd       8.25193614       0.00000000      10.00000000
Pd      11.00258152       0.00000000      10.00000000
Pd       0.00000000       2.75064538      10.00000000
Pd       2.75064538       2.75064538      10.00000000
Pd       5.50129076       2.75064538      10.00000000
Pd       8.25193614       2.75064538      10.00000000
Pd      11.00258152       2.75064538      10.00000000
Pd       0.00000000       5.50129076      10.00000000
Pd       2.75064538       5.50129076      10.00000000
Pd       5.50129076       5.50129076      10.00000000
Pd       8.25193614       5.50129076      10.00000000
Pd      11.00258152       5.50129076      10.00000000
Pd       0.00000000       8.25193614      10.00000000
Pd       2.75064538       8.25193614      10.00000000
Pd       5.50129076       8.25193614      10.00000000
Pd       8.25193614       8.25193614      10.00000000
Pd      11.00258152       8.25193614      10.00000000
Pd       0.00000000      11.00258152      10.00000000
Pd       2.75064538      11.00258152      10.00000000
Pd       5.50129076      11.00258152      10.00000000
Pd       8.25193614      11.00258152      10.00000000
Pd      11.00258152      11.00258152      10.00000000
Pd       1.35032108       1.42635815      11.97278234
Pd       4.11062295       1.41201758      11.93462096
Pd       6.83729690       1.39246534      11.96000049
Pd       9.57512057       1.39592898      11.89594876
Pd      12.38684272       1.37174114      11.92044161
Pd       1.39627684       4.14225422      12.01980674
Pd       4.12875812       4.15061591      12.00615749
Pd       6.85307206       4.12943323      12.00379818
Pd       9.56728621       4.13975942      11.94281254
Pd      12.36578195       4.13265160      11.93417299
Pd       1.37110082       6.89256210      11.94010419
Pd       4.13935064       6.87026939      11.96482277
Pd       6.87097415       6.85831372      11.95140951
Pd       9.64205429       6.82915781      11.94515418
Pd      12.39111484       6.85622887      11.94896407
Pd       1.37130804       9.64827663      11.98216378
Pd       4.11777592       9.66324146      11.95099537
Pd       6.89476706       9.64088005      11.95142944
Pd       9.64982872       9.59779534      11.89439304
Pd      12.42487279       9.60955999      11.94161946
Pd       1.37229649      12.40692929      11.99103627
Pd       4.11352916      12.37658553      11.94177192
Pd       6.86816975      12.39901143      11.97280504
Pd       9.63028672      12.36702810      11.91406436
Pd      12.40378128      12.35096010      11.97463577
Pd       0.03754451       0.11325089      14.00444464
Pd       2.71674959       0.00814419      13.93375679
Pd       5.41633358      13.71120938      13.96388638
Pd       8.15276330      13.71564162      13.84351319
Pd      11.07873225      13.72838952      13.84821886
Pd      10.95405772       2.71244996      13.93733077
Pd      13.64642818       2.83648711      14.01879020
Pd       2.69313942       2.79632129      14.05885378
Pd       5.57688734       2.71664392      14.01038195
Pd       8.27587229       2.74047202      14.01276124
Pd       0.09173037       5.53375589      13.98608719
Pd       2.79266393       5.53184119      14.07266122
Pd       5.56686381       5.61812833      14.08734399
Pd       8.30943318       5.49168440      13.97436663
Pd      11.06309708       5.43161263      13.93376366
Pd      13.69712651       8.25148788      13.96604240
Pd       2.71682527       8.24521460      13.97504753
Pd       5.49886674       8.32732459      13.94258390
Pd       8.28610150       8.24474398      13.98311298
Pd      11.01541877       8.17668500      14.06187094
Pd      13.63764704      11.07580593      14.06604437
Pd       2.78906240      11.01174528      13.97758517
Pd       5.51101730      11.05862166      13.95766746
Pd       6.86040027       9.89103391      15.98511369
Pd       8.23749678      10.95366315      13.92057983
Pd      12.80801440       6.66139948      16.22356891
Pd       9.66691216       9.47895695      16.23381438
Pd       2.00469167      12.78293122      16.44178276
Pd       1.57140579       5.67674049      16.63396997
Pd      10.96292169      10.90432264      13.97335858
Pd       9.54189945       1.62081765      16.25455543
Pd       4.45234062       1.47322105      17.06596810
Pd       4.03895813       9.77797681      16.05802331
Pd       5.43464396      12.34958767      16.60533976
Pd       8.84088610      12.02920503      16.36582408
Pd       1.12704178       2.07111584      16.57247987
Pd       3.84484381       4.06006637      16.32800357
Pd      11.50350396       3.40062040      16.71725180
Pd       1.22542302       9.18565765      16.13729914
Pd       6.82859116       7.11556891      16.25933293
Pd       6.94435824       1.06063712      15.89890828
Pd       9.96373266       6.72013246      16.39756348
Pd       7.47126349       3.74311173      16.62516330
Pd      12.31069234      12.64409133      16.07285548
Pd       4.06465508       6.98577407      16.00738947
O        9.42062381       3.28022116      17.27870179
O       10.69719345      11.27916196      16.01245231
O        9.60938119      13.68921267      15.27714002
O       11.96365527       1.69570327      17.71633595
O       11.21684886       0.67270851      17.26730478
O        5.42048447       8.41447027      16.86863123
O        3.99879662       1.34523549      14.93893937
O        0.26165964       0.05762576      16.07257615
O        7.23024997      13.02632180      16.87992575
O        1.35334081      11.06674669      15.52699420
O        2.56437697       0.80982264      17.22805681
O        2.07971339       3.81366233      17.08788386
O        8.12881377       5.56176218      16.02037102
O        8.65656093       8.00644591      17.06311230
O        5.68366791       4.15852163      15.59885231
O       13.38987422       3.25955780      15.97379366
O       11.31324305       5.32528373      15.98040129
O        0.73507355       7.45481352      16.86129706
O        6.31079338       2.20551523      17.40201453
O        3.63398310      11.65771996      16.83054631
