115
Lattice="13.75323 0.0 0.0 0.0 13.75323 0.0 0.0 0.0 23.89" Properties=species:S:1:pos:R:3 entry_id=7 rank=24 energy=-571.8927612304688 parent_id=6 pbc="T T F"
Pd       0.00000000       0.00000000      10.00000000
Pd       2.75064538       0.00000000      10.00000000
Pd       5.50129076       0.00000000      10.00000000
Pd       8.25193614       0.00000000      10.00000000
Pd      11.00258152       0.00000000      10.00000000
Pd       0.00000000       2.75064538      10.00000000
Pd       2.75064538       2.75064538      10.00000000
Pd       5.50129076       2.75064538      10.00000000
Pd       8.25193614       2.75064538      10.00000000
Pd      11.00258152       2.75064538      10.00000000
Pd       0.00000000       5.50129076      10.00000000
Pd       2.75064538       5.50129076      10.00000000
Pd       5.50129076       5.50129076      10.00000000
Pd       8.25193614       5.50129076      10.00000000
Pd      11.00258152       5.50129076      10.00000000
Pd       0.00000000       8.25193614      10.00000000
Pd       2.75064538       8.25193614      10.00000000
Pd       5.50129076       8.25193614      10.00000000
Pd       8.25193614       8.25193614      10.00000000
Pd      11.00258152       8.25193614      10.00000000
Pd       0.00000000      11.00258152      10.00000000
Pd       2.75064538      11.00258152      10.00000000
Pd       5.50129076      11.00258152      10.00000000
Pd       8.25193614      11.00258152      10.00000000
Pd      11.00258152      11.00258152      10.00000000
Pd       1.30714725       1.37280416      12.04033456
Pd       4.06541733       1.39006400      11.93375923
Pd       6.83177577       1.40416673      11.93709235
Pd       9.57512057       1.39592898      11.89594876
Pd      12.38684272       1.37174114      11.92044161
Pd       1.35839007       4.10161368      11.95837101
Pd       4.12517607       4.13843671      11.94821944
Pd       6.84623867       4.15908675      12.00462422
Pd       9.56728621       4.13975942      11.94281254
Pd      12.36578195       4.13265160      11.93417299
Pd       1.37110082       6.89256210      11.94010419
Pd       4.13935064       6.87026939      11.96482277
Pd       6.87097415       6.85831372      11.95140951
Pd       9.64205429       6.82915781      11.94515418
Pd      12.39111484       6.85622887      11.94896407
Pd       1.35420548       9.68209297      12.01934441
Pd       4.11777592       9.66324146      11.95099537
Pd       6.89476706       9.64088005      11.95142944
Pd       9.64982872       9.59779534      11.89439304
Pd      12.42487279       9.60955999      11.94161946
Pd       1.35000560      12.39606802      12.04242585
Pd       4.09031590      12.37278191      11.97470329
Pd       6.86816975      12.39901143      11.97280504
Pd       9.63028672      12.36702810      11.91406436
Pd      12.39971400      12.32473426      12.00750354
Pd      13.69027864      13.73039576      14.10440667
Pd       2.71176866       0.03779219      14.00593038
Pd       5.54396012      13.73690196      13.94080425
Pd       8.25916929       0.02732674      13.85841630
Pd      10.98053302       0.02845471      13.82885376
Pd      13.64851354       2.71524152      14.15350441
Pd       2.62353864       2.81683819      13.98726179
Pd       5.46783464       2.80005235      13.95653712
Pd       8.19259047       2.79767259      13.91738514
Pd      10.97902887       2.75413923      13.84145632
Pd       0.09468515       5.43269636      13.95677067
Pd       2.81219482       5.56562879      13.87214912
Pd       5.60703046       5.50691179      14.08803053
Pd       8.34736129       5.56065604      14.05169628
Pd      11.11016222       5.42315893      13.97967659
Pd      13.73968095       8.15873280      13.95793530
Pd       2.73362479       8.32283889      13.93645622
Pd       5.51238181       8.22308668      13.96415940
Pd       8.25039900       8.33074496      13.95039962
Pd      10.97818470       8.19210860      13.86291197
Pd      13.61576859      10.93789861      14.28476330
Pd       2.76624634      11.05501418      14.08029777
Pd       5.44711459      10.95267565      13.90980409
Pd       8.15155738      11.12558850      14.48171678
Pd      10.82741793      10.93363668      13.89378928
Pd      12.93585735       6.41123390      16.34883580
Pd       9.12285897       9.31580740      16.37085686
Pd       2.25361386      12.77564926      16.48189298
Pd       1.68378243       5.47173390      16.33782865
Pd      12.25992688       8.99003507      16.06496095
Pd       9.55436861       1.45967561      15.68828023
Pd       4.77931431       1.40395111      16.90282411
Pd       5.66743500       9.25012957      16.53276963
Pd       4.99387565      12.47776799      16.28205730
Pd      10.66643435      12.41307231      16.20608555
Pd       1.38145504       2.10929261      16.92485543
Pd       4.29179209       4.14554439      16.19593715
Pd      11.59504462       3.16006023      16.63539460
Pd       1.29137433       9.04058789      16.20797676
Pd       6.84277222       6.62393905      16.66867578
Pd       7.46699724       0.08995684      16.48974594
Pd      10.18935920       6.91399438      16.13408248
Pd       7.80841418       3.64804906      16.58544743
Pd      13.54302928      13.62996858      17.00163792
Pd       3.88749552       6.95032163      15.85574651
O        9.61951797       2.93530229      17.03575532
O       10.75857831      10.36133675      15.95299023
O       12.66626618      12.51328430      15.67567773
O       11.80038537       1.20481439      17.36782831
O       10.59582907       0.47622278      17.19373370
O        5.14301491       7.50366296      17.29171910
O        4.22482114       1.36103443      14.87381317
O        0.53299387       1.03345114      18.26738295
O        8.62852045      12.24204958      16.24441980
O        1.54863911      10.99573282      15.73614146
O        2.91939937       0.76896435      17.22803791
O        2.41708772       3.60168424      15.98350210
O        8.51369393       5.62473372      16.15458852
O        7.53303697       8.48467513      17.08807252
O        6.13437011       4.74299888      16.33996909
O       13.54357365       3.18085835      16.16985817
O       11.42018815       5.15014975      16.04644801
O        0.89396766       7.22168010      16.89585704
O        6.71449360       1.85634547      16.99543294
O        6.22205883      10.96571598      15.80794188
