115
Lattice="13.75323 0.0 0.0 0.0 13.75323 0.0 0.0 0.0 23.89" Properties=species:S:1:pos:R:3 entry_id=0 rank=34 energy=-568.3948974609375 parent_id=-1 pbc="T T F"
Pd       0.00000000       0.00000000      10.00000000
Pd       2.75064538       0.00000000      10.00000000
Pd       5.50129076       0.00000000      10.00000000
Pd       8.25193614       0.00000000      10.00000000
Pd      11.00258152       0.00000000      10.00000000
Pd       0.00000000       2.75064538      10.00000000
Pd       2.75064538       2.75064538      10.00000000
Pd       5.50129076       2.75064538      10.00000000
Pd       8.25193614       2.75064538      10.00000000
Pd      11.00258152       2.75064538      10.00000000
Pd       0.00000000       5.50129076      10.00000000
Pd       2.75064538       5.50129076      10.00000000
Pd       5.50129076       5.50129076      10.00000000
Pd       8.25193614       5.50129076      10.00000000
Pd      11.00258152       5.50129076      10.00000000
Pd       0.00000000       8.25193614      10.00000000
Pd       2.75064538       8.25193614      10.00000000
Pd       5.50129076       8.25193614      10.00000000
Pd       8.25193614       8.25193614      10.00000000
Pd      11.00258152       8.25193614      10.00000000
Pd       0.00000000      11.00258152      10.00000000
Pd       2.75064538      11.00258152      10.00000000
Pd       5.50129076      11.00258152      10.00000000
Pd       8.25193614      11.00258152      10.00000000
Pd      11.00258152      11.00258152      10.00000000
Pd       1.34623711       1.38084926      12.08140775
Pd       4.09710311       1.39053321      12.02480225
Pd       6.82981667       1.36956566      12.02878923
Pd       9.57512057       1.39592898      11.89594876
Pd      12.38684272       1.37174114      11.92044161
Pd       1.36477394       4.11653739      11.98603043
Pd       4.10062983       4.12336808      12.03938666
Pd       6.80964460       4.10127254      12.01947730
Pd       9.56728621       4.13975942      11.94281254
Pd      12.36578195       4.13265160      11.93417299
Pd       1.37110082       6.89256210      11.94010419
Pd       4.13935064       6.87026939      11.96482277
Pd       6.87097415       6.85831372      11.95140951
Pd       9.64205429       6.82915781      11.94515418
Pd      12.39111484       6.85622887      11.94896407
Pd       1.35620896       9.70033334      11.99805920
Pd       4.11777592       9.66324146      11.95099537
Pd       6.89476706       9.64088005      11.95142944
Pd       9.64982872       9.59779534      11.89439304
Pd      12.42487279       9.60955999      11.94161946
Pd       1.38044007      12.43192513      12.05375026
Pd       4.10022496      12.39284681      12.00405985
Pd       6.86816975      12.39901143      11.97280504
Pd       9.63028672      12.36702810      11.91406436
Pd      12.44377288      12.34106473      11.97881869
Pd      13.68382361      13.72511378      14.13498864
Pd       2.74103652       0.13692523      14.18796806
Pd       5.57274558      13.58409838      14.03500644
Pd       8.32209389       0.10876479      14.02900481
Pd      11.00944497       0.06537515      13.76260007
Pd      13.56158288       2.74997273      13.99054683
Pd       2.60935569       2.89250944      14.11900713
Pd       5.38702207       2.66349206      14.17480979
Pd       8.19634189       2.74742287      13.98471818
Pd      10.87230365       2.71369075      13.87799523
Pd       0.02065316       5.52366030      13.94647436
Pd       2.72278977       5.58688557      14.00787251
Pd       5.45643733       5.48201037      14.06969310
Pd       8.27767855       5.48391936      14.03244774
Pd      11.00184829       5.39658822      13.97228569
Pd       0.04972280       8.32459087      13.97807605
Pd       2.75360696       8.29352824      13.88783883
Pd       5.49570327       8.26291738      13.94879583
Pd       8.40019637       8.22067762      13.82455799
Pd      11.08215927       8.19517168      13.93713710
Pd      13.58926108      10.96822734      14.50063119
Pd       2.74691871      11.08186684      14.01333071
Pd       5.55693834      10.90584311      13.95548899
Pd       8.34037392      11.01505937      13.92443994
Pd      11.03613684      10.88292522      13.82899168
Pd      12.43757162       6.59289180      16.10452274
Pd       8.74022968       9.62197656      16.23412782
Pd       2.03066655      12.72900751      16.64118833
Pd       1.41924565       7.01589758      16.25553215
Pd      11.87896219       9.39105643      16.30172604
Pd       8.32081326       1.37675414      16.95477584
Pd       4.98993643       0.37829141      17.18452959
Pd       5.65052575       9.65136503      17.05435406
Pd       4.39387127      11.78168501      16.13855777
Pd      10.86720984      12.42525233      15.91208016
Pd       0.84947994       4.28636837      16.30385116
Pd       3.88140451       4.40497492      16.31834902
Pd      11.15783699       3.15625300      16.54909344
Pd       2.99011263       9.51111733      16.27594787
Pd       7.25968260       7.14723901      16.87910248
Pd       6.97188636      11.97815433      16.16848080
Pd       9.73204791       6.98604248      15.97459606
Pd       7.44861419       3.72292358      16.42956634
Pd       1.07463096       1.49126537      16.04517738
Pd       4.09054843       7.08730683      15.90612245
O        9.23782603       3.11397511      17.10120451
O       10.39577386      10.53340955      16.84739561
O       12.86567701      12.54158632      15.65830888
O       11.40044073       1.29088598      17.22752408
O       10.36261756       0.44718674      17.13446024
O        5.25437320       7.65419542      17.37630918
O        4.40733562       1.01611580      15.22011850
O        2.39090006       1.64077992      17.53600480
O        8.88605486      12.46476151      15.43792062
O        1.53672094      10.98904952      15.78939126
O        3.00993869       0.38458942      17.70399694
O        2.31056079       5.38261862      17.01130153
O        6.98078368       5.58695122      15.66943222
O        7.53890226       8.89922445      17.78025478
O        5.52326428       3.35573595      16.08832866
O       13.14556657       2.98282513      16.01058141
O       11.03824870       5.17655760      16.05770638
O       13.54550074       8.25307337      16.06252332
O        6.93525010       0.02459860      17.15687612
O        7.07534735       8.65266470      15.26882823
