115
Lattice="13.75323 0.0 0.0 0.0 13.75323 0.0 0.0 0.0 23.89" Properties=species:S:1:pos:R:3 trial_index=8 seed_entry_id=7 discovered_entry_id=8 energy=-572.7232666015625 status=accepted pbc="T T F"
Pd       0.00000000       0.00000000      10.00000000
Pd       2.75064538       0.00000000      10.00000000
Pd       5.50129076       0.00000000      10.00000000
Pd       8.25193614       0.00000000      10.00000000
Pd      11.00258152       0.00000000      10.00000000
Pd       0.00000000       2.75064538      10.00000000
Pd       2.75064538       2.75064538      10.00000000
Pd       5.50129076       2.75064538      10.00000000
Pd       8.25193614       2.75064538      10.00000000
Pd      11.00258152       2.75064538      10.00000000
Pd       0.00000000       5.50129076      10.00000000
Pd       2.75064538       5.50129076      10.00000000
Pd       5.50129076       5.50129076      10.00000000
Pd       8.25193614       5.50129076      10.00000000
Pd      11.00258152       5.50129076      10.00000000
Pd       0.00000000       8.25193614      10.00000000
Pd       2.75064538       8.25193614      10.00000000
Pd       5.50129076       8.25193614      10.00000000
Pd       8.25193614       8.25193614      10.00000000
Pd      11.00258152       8.25193614      10.00000000
Pd       0.00000000      11.00258152      10.00000000
Pd       2.75064538      11.00258152      10.00000000
Pd       5.50129076      11.00258152      10.00000000
Pd       8.25193614      11.00258152      10.00000000
Pd      11.00258152      11.00258152      10.00000000
Pd       1.40497212       1.35051561      11.99799968
Pd       4.10229521       1.35733823      12.01434220
Pd       6.84883969       1.39093394      11.95614805
Pd       9.57512057       1.39592898      11.89594876
Pd      12.38684272       1.37174114      11.92044161
Pd       1.39676481       4.12651816      12.00490076
Pd       4.07915171       4.11494930      11.99224320
Pd       6.82955269       4.13017557      11.95684431
Pd       9.56728621       4.13975942      11.94281254
Pd      12.36578195       4.13265160      11.93417299
Pd       1.37110082       6.89256210      11.94010419
Pd       4.13935064       6.87026939      11.96482277
Pd       6.87097415       6.85831372      11.95140951
Pd       9.64205429       6.82915781      11.94515418
Pd      12.39111484       6.85622887      11.94896407
Pd       1.38167008       9.60289316      11.96260199
Pd       4.11777592       9.66324146      11.95099537
Pd       6.89476706       9.64088005      11.95142944
Pd       9.64982872       9.59779534      11.89439304
Pd      12.42487279       9.60955999      11.94161946
Pd       1.36282996      12.36815447      11.98930921
Pd       4.10686043      12.36700933      11.99650524
Pd       6.86816975      12.39901143      11.97280504
Pd       9.63028672      12.36702810      11.91406436
Pd      12.37800984      12.37913121      11.95405787
Pd      13.65824995      13.67467501      13.99479493
Pd       2.73386550      13.63517208      14.07340923
Pd       5.48492146      13.73067573      13.95785376
Pd       8.22778282       0.10158665      13.92156404
Pd      10.94140674       0.07594692      13.94250320
Pd       8.30038099       2.78520930      13.89256964
Pd      10.99387664       2.79539051      13.93724996
Pd       0.07106641       2.67510950      13.88617938
Pd       1.42578689       1.49810350      15.96862993
Pd       5.57229384       2.71300744      14.03463068
Pd      13.68201991       5.52995568      13.88662614
Pd       2.85537201       2.75749691      14.08056791
Pd       2.86514621       8.16797405      14.00027095
Pd       8.19831891       5.52395246      14.02122187
Pd      10.96976086       5.55675264      13.97704697
Pd       0.10247464       8.25898549      14.00790484
Pd       5.57934739       8.21453374      13.97159971
Pd       5.36693379       5.44814566      13.89650283
Pd       8.30898388       8.24538406      13.91904241
Pd      11.07033432       8.32303280      14.00071290
Pd      13.70728827      10.98216133      13.98195208
Pd       2.64550713      10.87025957      13.96163449
Pd       5.38515732      10.96616969      14.00909318
Pd       8.19826133      10.96012515      14.00194835
Pd      10.93679416      11.10869452      13.88237601
Pd      12.47085481       6.69613851      16.20649007
Pd       9.34694621       9.63783299      16.19255368
Pd       0.71592110      12.08709940      16.63617651
Pd       2.56962859       5.48298635      14.32342220
Pd      12.12304463       9.90426123      16.08453357
Pd       7.23338036       2.06066005      16.33374808
Pd       4.30028704       1.22328396      16.01439082
Pd       5.04449498       9.39061124      16.41384104
Pd       3.69878571      11.60760405      16.32240122
Pd       9.76652893      13.01349467      16.60563004
Pd      13.65921549       4.06062219      16.15493567
Pd       2.59106878       3.81240457      16.79742591
Pd      10.08973386       4.21452562      16.26081149
Pd       1.74568735       8.64873764      16.48340946
Pd       7.07188489       7.01919366      16.25954568
Pd       6.20693720      12.52450182      16.33450173
Pd       9.75660652       6.89727536      15.94745570
Pd       5.18471017       3.82302252      16.66430539
Pd      11.86804883       1.07736247      16.65828476
Pd       4.33760263       6.73944299      16.18740030
O        8.28724614       3.63501662      15.73535022
O       10.55038517      11.19190724      15.91939978
O       13.55427932       0.10019920      16.08944820
O       10.19044458       2.06598141      17.25281205
O        9.07857858       1.16896183      17.18212467
O        3.56025180       8.30324737      17.10200774
O        2.35709993      13.19184611      16.13277848
O       11.26118837      13.37842896      17.70826453
O        8.17660140      12.59246036      15.50561004
O        2.01104712      10.63477728      17.03679135
O       13.01892204      11.09229218      17.32528735
O        1.46648115       5.27484274      16.19455403
O        5.90366877       5.46058136      15.87061182
O        8.48234207       8.10919718      17.00345622
O        3.94685754       2.56446425      17.52465297
O       12.38119916       2.64171838      15.51945859
O       11.83629086       4.94312230      16.84653646
O       13.51625314       8.46266650      16.06816224
O        6.03133085       0.62227429      16.95250675
O        6.42761355      10.63224928      15.80751067
