115
Lattice="13.75323 0.0 0.0 0.0 13.75323 0.0 0.0 0.0 23.89" Properties=species:S:1:pos:R:3 trial_index=12 seed_entry_id=11 discovered_entry_id=12 energy=-571.9259033203125 status=accepted pbc="T T F"
Pd       0.00000000       0.00000000      10.00000000
Pd       2.75064538       0.00000000      10.00000000
Pd       5.50129076       0.00000000      10.00000000
Pd       8.25193614       0.00000000      10.00000000
Pd      11.00258152       0.00000000      10.00000000
Pd       0.00000000       2.75064538      10.00000000
Pd       2.75064538       2.75064538      10.00000000
Pd       5.50129076       2.75064538      10.00000000
Pd       8.25193614       2.75064538      10.00000000
Pd      11.00258152       2.75064538      10.00000000
Pd       0.00000000       5.50129076      10.00000000
Pd       2.75064538       5.50129076      10.00000000
Pd       5.50129076       5.50129076      10.00000000
Pd       8.25193614       5.50129076      10.00000000
Pd      11.00258152       5.50129076      10.00000000
Pd       0.00000000       8.25193614      10.00000000
Pd       2.75064538       8.25193614      10.00000000
Pd       5.50129076       8.25193614      10.00000000
Pd       8.25193614       8.25193614      10.00000000
Pd      11.00258152       8.25193614      10.00000000
Pd       0.00000000      11.00258152      10.00000000
Pd       2.75064538      11.00258152      10.00000000
Pd       5.50129076      11.00258152      10.00000000
Pd       8.25193614      11.00258152      10.00000000
Pd      11.00258152      11.00258152      10.00000000
Pd       1.40986490       1.36859638      12.00333915
Pd       4.11182205       1.35548177      12.03852800
Pd       6.85483297       1.38215158      11.99227515
Pd       9.57512057       1.39592898      11.89594876
Pd      12.38684272       1.37174114      11.92044161
Pd       1.39606412       4.11869806      11.96284413
Pd       4.12234238       4.08228206      11.98103574
Pd       6.87125980       4.11708496      11.96423259
Pd       9.56728621       4.13975942      11.94281254
Pd      12.36578195       4.13265160      11.93417299
Pd       1.37110082       6.89256210      11.94010419
Pd       4.13935064       6.87026939      11.96482277
Pd       6.87097415       6.85831372      11.95140951
Pd       9.64205429       6.82915781      11.94515418
Pd      12.39111484       6.85622887      11.94896407
Pd       1.38142258       9.59671379      11.97270419
Pd       4.11777592       9.66324146      11.95099537
Pd       6.89476706       9.64088005      11.95142944
Pd       9.64982872       9.59779534      11.89439304
Pd      12.42487279       9.60955999      11.94161946
Pd       1.34966285      12.38032286      11.95919497
Pd       4.12995312      12.40082368      11.99929188
Pd       6.86816975      12.39901143      11.97280504
Pd       9.63028672      12.36702810      11.91406436
Pd      12.36019310      12.36140311      11.96737665
Pd       0.03629665       2.77561391      13.89071845
Pd       2.69185398      13.73640843      14.03683405
Pd       5.46747046      13.69193643      14.08081744
Pd       8.24469125       0.11317792      13.98315937
Pd      10.94643256      13.73303948      13.95611846
Pd       8.31179748       2.89400320      13.97907742
Pd      11.06465153       2.67432283      13.96279078
Pd       0.00616399       5.46120468      13.97344890
Pd       1.26324057       1.58000137      15.95172564
Pd       5.52556345       2.67874116      14.02637055
Pd      10.93737939       8.21763287      13.92916007
Pd       2.80911572       2.82241930      14.15346559
Pd       0.10373949       8.20515495      14.00483007
Pd       8.28427273       5.69686177      13.99103252
Pd      11.03955841       5.46071854      13.96235715
Pd      13.69523855      10.96376601      13.98320278
Pd       5.52451216       5.44480692      13.89531022
Pd       2.74575565       5.52131906      13.91769179
Pd       5.38906612      10.89432484      14.00015177
Pd       5.77338909       8.21449471      14.08202495
Pd      13.65661188      13.71137127      13.94781380
Pd       2.64690514      10.94913140      13.88251967
Pd       2.92941832       8.24281704      14.03703096
Pd       8.16905297      10.98494081      13.80418455
Pd      10.92913030      11.00968442      13.88577468
Pd      12.58321246       6.57446134      16.26945661
Pd       8.27770623       9.02034539      15.42561890
Pd       0.76307540      11.99158156      16.52351684
Pd       1.52030531       5.76606723      16.23214012
Pd      11.99779930       9.61069738      15.99744758
Pd       7.12551837       1.58594570      16.13113402
Pd       3.61944784       0.58783830      16.64240813
Pd       5.30081341       8.99652287      16.74893153
Pd       3.75687065      11.00543739      16.29580636
Pd       9.85395866      12.32395372      16.50633825
Pd      13.29472116       3.49955321      16.58217002
Pd       2.58140136       3.26709078      17.51027503
Pd      10.07914386       4.05620816      16.28298257
Pd       1.75879609       8.41575642      16.56885073
Pd       7.08000801       6.60542588      16.36091885
Pd       6.30583112      11.89545279      16.34167498
Pd       9.87925982       6.76878145      15.94212484
Pd       5.11873409       3.49620778      16.61205835
Pd      11.83802066       0.54519511      16.74146306
Pd       4.17665599       6.58952867      16.06903434
O        8.36797251       3.11403429      15.95578517
O       10.26655964      10.51565955      15.78498919
O       13.65825719      13.74928410      16.02610456
O       10.15021288       1.10923393      17.67099966
O        9.12610408       0.30757834      17.28593444
O        3.59320927       8.10851949      17.21017753
O        2.65782650      12.73274629      15.93371137
O       11.65042971      12.39672503      17.50202127
O        8.19132485      12.33451924      15.42084501
O        1.90013230      10.43233337      17.03998416
O       12.67567571      11.34673252      17.12798005
O        0.99485739       4.39341647      17.58183874
O        5.73058298       5.22005242      15.92277247
O        8.51954204       7.73775265      16.99826453
O        4.20299990       2.14683064      17.65709278
O       11.77989812       2.39005355      15.91557839
O       11.76962799       4.89365145      16.93134163
O       13.55240462       8.37148757      16.07206765
O        5.77014680       0.07396194      16.17585896
O        6.92940307      10.05510309      16.64127764
