115
Lattice="13.75323 0.0 0.0 0.0 13.75323 0.0 0.0 0.0 23.89" Properties=species:S:1:pos:R:3 trial_index=5 seed_entry_id=4 discovered_entry_id=5 energy=-572.130615234375 status=accepted pbc="T T F"
Pd       0.00000000       0.00000000      10.00000000
Pd       2.75064538       0.00000000      10.00000000
Pd       5.50129076       0.00000000      10.00000000
Pd       8.25193614       0.00000000      10.00000000
Pd      11.00258152       0.00000000      10.00000000
Pd       0.00000000       2.75064538      10.00000000
Pd       2.75064538       2.75064538      10.00000000
Pd       5.50129076       2.75064538      10.00000000
Pd       8.25193614       2.75064538      10.00000000
Pd      11.00258152       2.75064538      10.00000000
Pd       0.00000000       5.50129076      10.00000000
Pd       2.75064538       5.50129076      10.00000000
Pd       5.50129076       5.50129076      10.00000000
Pd       8.25193614       5.50129076      10.00000000
Pd      11.00258152       5.50129076      10.00000000
Pd       0.00000000       8.25193614      10.00000000
Pd       2.75064538       8.25193614      10.00000000
Pd       5.50129076       8.25193614      10.00000000
Pd       8.25193614       8.25193614      10.00000000
Pd      11.00258152       8.25193614      10.00000000
Pd       0.00000000      11.00258152      10.00000000
Pd       2.75064538      11.00258152      10.00000000
Pd       5.50129076      11.00258152      10.00000000
Pd       8.25193614      11.00258152      10.00000000
Pd      11.00258152      11.00258152      10.00000000
Pd       1.38817598       1.39668695      12.03623902
Pd       4.06294574       1.34869754      12.02853389
Pd       6.80632471       1.38916077      11.99802524
Pd       9.57512057       1.39592898      11.89594876
Pd      12.38684272       1.37174114      11.92044161
Pd       1.41198197       4.15318646      11.99033856
Pd       4.06085696       4.08710193      12.01618033
Pd       6.80130903       4.12530741      11.97901056
Pd       9.56728621       4.13975942      11.94281254
Pd      12.36578195       4.13265160      11.93417299
Pd       1.37110082       6.89256210      11.94010419
Pd       4.13935064       6.87026939      11.96482277
Pd       6.87097415       6.85831372      11.95140951
Pd       9.64205429       6.82915781      11.94515418
Pd      12.39111484       6.85622887      11.94896407
Pd       1.41125162       9.64829489      11.95552357
Pd       4.11777592       9.66324146      11.95099537
Pd       6.89476706       9.64088005      11.95142944
Pd       9.64982872       9.59779534      11.89439304
Pd      12.42487279       9.60955999      11.94161946
Pd       1.38906193      12.39772445      11.99029137
Pd       4.09430395      12.36127077      12.02961738
Pd       6.86816975      12.39901143      11.97280504
Pd       9.63028672      12.36702810      11.91406436
Pd      12.41014952      12.38019522      11.96197525
Pd      13.62239924       0.00911467      14.00481295
Pd       2.69180991      13.64950121      14.03279692
Pd       5.43629013      13.69416532      14.05257607
Pd       8.18882799       0.10281070      13.95060803
Pd      10.91447054       0.01709038      13.94692123
Pd       8.15946543       2.80336276      13.94671594
Pd      10.98512667       2.69083267      13.84873618
Pd      13.72400187       2.84895739      13.85471592
Pd       1.24620300       1.75382698      15.81136860
Pd       5.31501296       2.62405739      14.08166146
Pd       0.16072101       5.51602973      14.01444072
Pd       2.63679466       3.76340666      14.51947778
Pd       5.34524531       5.37487149      13.96181014
Pd       8.23954194       5.50815574      14.00145011
Pd      11.04338914       5.48484064      13.93251708
Pd       0.24228852       8.27311037      13.99835408
Pd       2.78434981       6.58096731      14.19440851
Pd       5.41950369       8.13511843      13.99147091
Pd       8.26418528       8.20044437      13.91170702
Pd      11.06784882       8.28850021      14.04339031
Pd       0.15296470      11.02162476      13.97220709
Pd       2.86043188       9.31253224      14.24518098
Pd       5.43877226      10.92044326      13.89933919
Pd       8.29985223      10.92536886      13.93286447
Pd      11.04917807      11.06999414      13.86563871
Pd      12.60605951       6.92660386      16.04542575
Pd       9.38517770       9.52728650      16.09331254
Pd       0.78062048      12.29999409      16.59325345
Pd       1.60252437       5.96012203      16.38658581
Pd      12.25977652       9.97166644      16.07680258
Pd       7.01963319       1.80461315      16.38020896
Pd       4.19010444       0.29930234      16.62188829
Pd       5.07536948       9.38491485      16.43957881
Pd       3.57394435      11.49209135      15.68060588
Pd       9.76817403      12.86869331      16.59315724
Pd      13.45553345       3.88227135      16.51875803
Pd       2.42381977       3.36123444      17.55248448
Pd       9.92977176       3.70807093      16.14510202
Pd       1.86089295       8.66684920      16.69255483
Pd       6.94366321       6.83489240      16.10499183
Pd       6.28547948      12.26004015      16.32958640
Pd       9.72903644       6.74797860      16.19902843
Pd       4.90292928       3.55907745      16.61097714
Pd      11.72328146       1.08724122      16.73952455
Pd       4.27152564       6.75541210      16.57064703
O        8.00294594       3.41692513      15.87692969
O       10.59783133      11.09502003      15.90472315
O       13.47831045       0.26795576      16.09508724
O        9.94438023       1.87589339      17.38475425
O        8.91215605       0.92243278      17.21068573
O        3.65483040       8.42610960      17.40810501
O        2.29747593      13.74134072      16.11503027
O       11.26780885      13.26615292      17.68690969
O        8.20867105      12.46991974      15.45141476
O        2.09427502      10.84766229      16.87461057
O       13.13738191      11.21682018      17.27625348
O        0.99661518       4.66354470      17.78316699
O        5.56389782       5.32773736      15.99242675
O        8.34491703       8.02184977      16.77080156
O        3.95479551       2.15151838      17.56913600
O       11.87469385       2.87926284      15.81872430
O       11.22645547       5.46846544      16.02280622
O       13.71077612       8.61718822      16.08120888
O        6.06785394       0.27432801      17.16179402
O        6.51144627      10.44125123      15.63476274
