115
Lattice="13.75323 0.0 0.0 0.0 13.75323 0.0 0.0 0.0 23.89" Properties=species:S:1:pos:R:3 trial_index=1 seed_entry_id=0 discovered_entry_id=1 energy=-570.677001953125 status=accepted pbc="T T F"
Pd       0.00000000       0.00000000      10.00000000
Pd       2.75064538       0.00000000      10.00000000
Pd       5.50129076       0.00000000      10.00000000
Pd       8.25193614       0.00000000      10.00000000
Pd      11.00258152       0.00000000      10.00000000
Pd       0.00000000       2.75064538      10.00000000
Pd       2.75064538       2.75064538      10.00000000
Pd       5.50129076       2.75064538      10.00000000
Pd       8.25193614       2.75064538      10.00000000
Pd      11.00258152       2.75064538      10.00000000
Pd       0.00000000       5.50129076      10.00000000
Pd       2.75064538       5.50129076      10.00000000
Pd       5.50129076       5.50129076      10.00000000
Pd       8.25193614       5.50129076      10.00000000
Pd      11.00258152       5.50129076      10.00000000
Pd       0.00000000       8.25193614      10.00000000
Pd       2.75064538       8.25193614      10.00000000
Pd       5.50129076       8.25193614      10.00000000
Pd       8.25193614       8.25193614      10.00000000
Pd      11.00258152       8.25193614      10.00000000
Pd       0.00000000      11.00258152      10.00000000
Pd       2.75064538      11.00258152      10.00000000
Pd       5.50129076      11.00258152      10.00000000
Pd       8.25193614      11.00258152      10.00000000
Pd      11.00258152      11.00258152      10.00000000
Pd       1.40930316       1.39753217      11.98907362
Pd       4.12825582       1.39230109      12.03337072
Pd       6.85957053       1.37915415      12.02058225
Pd       9.57512057       1.39592898      11.89594876
Pd      12.38684272       1.37174114      11.92044161
Pd       1.38158832       4.13409270      11.98101206
Pd       4.11512483       4.10532917      11.98997623
Pd       6.84923100       4.11583219      12.01101801
Pd       9.56728621       4.13975942      11.94281254
Pd      12.36578195       4.13265160      11.93417299
Pd       1.37110082       6.89256210      11.94010419
Pd       4.13935064       6.87026939      11.96482277
Pd       6.87097415       6.85831372      11.95140951
Pd       9.64205429       6.82915781      11.94515418
Pd      12.39111484       6.85622887      11.94896407
Pd       1.36861672       9.65962437      11.95771162
Pd       4.11777592       9.66324146      11.95099537
Pd       6.89476706       9.64088005      11.95142944
Pd       9.64982872       9.59779534      11.89439304
Pd      12.42487279       9.60955999      11.94161946
Pd       1.38508520      12.40670140      11.98453240
Pd       4.11920233      12.41554522      12.01725980
Pd       6.86816975      12.39901143      11.97280504
Pd       9.63028672      12.36702810      11.91406436
Pd      12.39399360      12.36220025      11.96420195
Pd      13.68134174      13.74461185      13.91815857
Pd       2.69403769      13.74466939      14.12545819
Pd       5.48068866       0.00915782      14.05306905
Pd       8.27008504       0.02178646      14.00930012
Pd      10.97063698      13.74673490      13.94469593
Pd      11.05463226       2.68479767      13.93125184
Pd       0.04266222       2.76601896      13.93243632
Pd       2.79530056       2.93920726      14.10815612
Pd       5.58991941       2.71500625      14.14929725
Pd       8.33994936       2.76179381      13.98331413
Pd      13.71052895       5.49975321      13.97483382
Pd       2.68855805       5.61902387      13.95851943
Pd       5.41380877       5.47255943      13.97891295
Pd       8.15713072       5.52181239      14.06942312
Pd      10.94434352       5.41887769      13.94892544
Pd       0.01290249       8.26591749      13.97886731
Pd       2.73585654       8.30967278      13.90437470
Pd       5.50712622       8.25580440      13.89949169
Pd       8.30335520       8.24290227      13.96219255
Pd      11.05161564       8.21751138      13.97150756
Pd       0.01205407      10.97371011      14.05908069
Pd       2.69305722      11.03440245      13.96639265
Pd       5.42848638      11.07339607      14.03767054
Pd       8.30916040      10.94016567      13.91215825
Pd      11.04479594      10.98851039      13.87452444
Pd      12.32840182       6.48008654      16.30226226
Pd       9.23339851       9.77079072      16.56667733
Pd       1.15962350      12.48718503      16.33120649
Pd       1.39167465       6.98301232      15.94726793
Pd      12.39234565       9.34857030      16.21402825
Pd       7.48962105       1.53741413      16.22201773
Pd       4.49258363       1.16700698      16.36935399
Pd       5.71655078      10.16147203      16.77812299
Pd       3.96153840      12.21253901      16.15076789
Pd      10.25734315      12.48497142      16.49700879
Pd      13.74217626       4.06283304      16.36086383
Pd       3.23560940       4.71653427      16.42933154
Pd      10.30963165       3.26447342      16.56208849
Pd       3.04164433       9.53957148      16.19789237
Pd       7.34228001       7.68791021      16.91272487
Pd       6.61429596      12.73311682      16.37279948
Pd       9.70579532       7.07563075      16.02451399
Pd       6.84975880       4.14352742      16.35886018
Pd      12.25820496       0.85562714      16.63172859
Pd       4.16416420       7.18791534      15.98390114
O        8.39850743       3.20046246      17.05382162
O       10.90017643      10.64014568      15.87783084
O        0.21149725       0.37255086      15.84307617
O       10.49777594       1.40778839      17.48960519
O        9.47345814       0.46545683      17.19455205
O        5.36718499       8.10567359      17.26462240
O        2.81455162       1.51679665      15.48516762
O       12.07527348      12.74430184      17.45155152
O        8.44705217      12.25358941      15.55828091
O        2.42034032      11.20134689      17.09061803
O       13.07404006      11.80261137      17.20169815
O        1.44037508       5.14810681      17.02174076
O        7.85878584       5.94262314      16.17178807
O        7.55560201       9.52084621      17.54991328
O        5.13853440       5.02751555      15.97927322
O       12.23078061       2.79454430      15.94909457
O       10.76877781       5.22552576      16.00585919
O       13.56029640       7.90562618      16.86567398
O        6.05646002       0.61958101      17.39335272
O        6.75381289       9.66965489      14.81600830
