115
Lattice="13.75323 0.0 0.0 0.0 13.75323 0.0 0.0 0.0 23.89" Properties=species:S:1:pos:R:3 trial_index=4 seed_entry_id=3 discovered_entry_id=4 energy=-572.279296875 status=accepted pbc="T T F"
Pd       0.00000000       0.00000000      10.00000000
Pd       2.75064538       0.00000000      10.00000000
Pd       5.50129076       0.00000000      10.00000000
Pd       8.25193614       0.00000000      10.00000000
Pd      11.00258152       0.00000000      10.00000000
Pd       0.00000000       2.75064538      10.00000000
Pd       2.75064538       2.75064538      10.00000000
Pd       5.50129076       2.75064538      10.00000000
Pd       8.25193614       2.75064538      10.00000000
Pd      11.00258152       2.75064538      10.00000000
Pd       0.00000000       5.50129076      10.00000000
Pd       2.75064538       5.50129076      10.00000000
Pd       5.50129076       5.50129076      10.00000000
Pd       8.25193614       5.50129076      10.00000000
Pd      11.00258152       5.50129076      10.00000000
Pd       0.00000000       8.25193614      10.00000000
Pd       2.75064538       8.25193614      10.00000000
Pd       5.50129076       8.25193614      10.00000000
Pd       8.25193614       8.25193614      10.00000000
Pd      11.00258152       8.25193614      10.00000000
Pd       0.00000000      11.00258152      10.00000000
Pd       2.75064538      11.00258152      10.00000000
Pd       5.50129076      11.00258152      10.00000000
Pd       8.25193614      11.00258152      10.00000000
Pd      11.00258152      11.00258152      10.00000000
Pd       1.39596147       1.38291491      11.99201181
Pd       4.09225989       1.37634177      12.02367904
Pd       6.81988691       1.38401587      11.97764794
Pd       9.57512057       1.39592898      11.89594876
Pd      12.38684272       1.37174114      11.92044161
Pd       1.42838390       4.15907480      11.97052691
Pd       4.09445825       4.11060484      11.98190026
Pd       6.82835814       4.12323847      11.95931838
Pd       9.56728621       4.13975942      11.94281254
Pd      12.36578195       4.13265160      11.93417299
Pd       1.37110082       6.89256210      11.94010419
Pd       4.13935064       6.87026939      11.96482277
Pd       6.87097415       6.85831372      11.95140951
Pd       9.64205429       6.82915781      11.94515418
Pd      12.39111484       6.85622887      11.94896407
Pd       1.37692258       9.63788281      11.96979214
Pd       4.11777592       9.66324146      11.95099537
Pd       6.89476706       9.64088005      11.95142944
Pd       9.64982872       9.59779534      11.89439304
Pd      12.42487279       9.60955999      11.94161946
Pd       1.34778269      12.40975814      12.01566547
Pd       4.10689380      12.40472746      12.01818871
Pd       6.86816975      12.39901143      11.97280504
Pd       9.63028672      12.36702810      11.91406436
Pd      12.39116404      12.36630800      11.98749367
Pd      13.60098187       0.03693634      14.02876144
Pd       2.67435599       0.01579545      14.07578458
Pd       5.42657398      13.74304859      14.07685144
Pd       8.18195446       0.09068296      13.91874511
Pd      10.90314930       0.00162426      13.94594734
Pd       8.19668494       2.77502673      13.91997407
Pd      11.04329703       2.67619737      13.87003062
Pd       0.00890130       2.81843370      13.82523047
Pd       1.02898036       2.03555671      16.10133117
Pd       5.43258174       2.67975858      14.06742064
Pd       0.03509012       5.51200951      13.86926338
Pd       2.74093156       2.89708274      14.09445091
Pd       5.40627592       5.44253765      13.88127934
Pd       8.25211167       5.50415946      14.03665394
Pd      11.01266923       5.47328267      13.96588548
Pd       0.05723470       8.28248633      13.95539790
Pd       2.84408126       8.14114825      13.91254332
Pd       5.55734472       8.21656709      13.97328818
Pd       8.30516987       8.20040714      13.91761252
Pd      11.05726047       8.28139165      14.04887998
Pd       0.01395681      11.01669398      14.09837040
Pd       2.70372170      10.94148539      13.90838771
Pd       5.45113822      10.99267342      13.98387447
Pd       8.26314952      10.91158914      13.96922188
Pd      11.01988912      11.03554341      13.92484039
Pd      12.72648779       7.46003899      16.31909584
Pd       9.44127870       9.51079047      16.11804389
Pd       0.71313035      12.66697227      16.65908629
Pd       1.56143919       6.63416914      15.68030672
Pd      12.25027158      10.21126208      16.45924961
Pd       6.96651130       1.96693025      16.36316108
Pd       4.13962467       0.65795770      16.61735190
Pd       4.90849591       9.49781699      16.34125115
Pd       3.75850034      11.83987698      16.15893080
Pd       9.70432468      12.95875524      16.61019334
Pd      13.31840321       4.18541071      16.32410063
Pd       2.42833733       3.82700471      17.25616598
Pd       9.79661313       3.72676524      16.02399522
Pd       1.64007391       9.45755663      15.92976280
Pd       6.99236865       6.86666015      16.10926218
Pd       6.30943602      12.42749836      16.39799932
Pd       9.93970491       6.70818197      16.19927867
Pd       4.91935043       3.74696122      16.58453936
Pd      11.59749412       1.24689523      16.80099322
Pd       4.15667948       6.93401395      16.26274621
O        7.87036790       3.63418273      15.80225671
O       10.56005322      11.17250287      15.95470349
O       13.35252133       0.52174061      16.10214798
O        9.80726108       1.99747166      17.42411806
O        8.79983537       1.02476210      17.21641986
O        3.29668008       8.55949879      16.95381804
O        2.22322859       0.33405849      16.11381704
O       11.16844766      13.40641765      17.73087294
O        8.18753905      12.51082895      15.45086705
O        2.02437706      11.23801755      16.99000389
O       13.00201706      11.72015481      17.40984053
O        1.09084480       5.20986601      17.02200510
O        5.51744231       5.50506141      15.90206581
O        8.49356491       7.91696365      16.76409267
O        3.83210921       2.48801673      17.60166876
O       11.72935965       3.06088755      15.90318008
O       11.72362046       5.80288088      15.94994649
O       13.68919670       9.02125985      17.00783133
O        6.01222791       0.46091241      17.18541686
O        6.46454195      10.55573656      15.79200395
