115
Lattice="13.75323 0.0 0.0 0.0 13.75323 0.0 0.0 0.0 23.89" Properties=species:S:1:pos:R:3 trial_index=7 seed_entry_id=6 discovered_entry_id=7 energy=-572.7567138671875 status=accepted pbc="T T F"
Pd       0.00000000       0.00000000      10.00000000
Pd       2.75064538       0.00000000      10.00000000
Pd       5.50129076       0.00000000      10.00000000
Pd       8.25193614       0.00000000      10.00000000
Pd      11.00258152       0.00000000      10.00000000
Pd       0.00000000       2.75064538      10.00000000
Pd       2.75064538       2.75064538      10.00000000
Pd       5.50129076       2.75064538      10.00000000
Pd       8.25193614       2.75064538      10.00000000
Pd      11.00258152       2.75064538      10.00000000
Pd       0.00000000       5.50129076      10.00000000
Pd       2.75064538       5.50129076      10.00000000
Pd       5.50129076       5.50129076      10.00000000
Pd       8.25193614       5.50129076      10.00000000
Pd      11.00258152       5.50129076      10.00000000
Pd       0.00000000       8.25193614      10.00000000
Pd       2.75064538       8.25193614      10.00000000
Pd       5.50129076       8.25193614      10.00000000
Pd       8.25193614       8.25193614      10.00000000
Pd      11.00258152       8.25193614      10.00000000
Pd       0.00000000      11.00258152      10.00000000
Pd       2.75064538      11.00258152      10.00000000
Pd       5.50129076      11.00258152      10.00000000
Pd       8.25193614      11.00258152      10.00000000
Pd      11.00258152      11.00258152      10.00000000
Pd       1.40759103       1.36415983      11.98955847
Pd       4.11628124       1.36287386      12.02562491
Pd       6.83929129       1.38383937      11.98337456
Pd       9.57512057       1.39592898      11.89594876
Pd      12.38684272       1.37174114      11.92044161
Pd       1.40174084       4.13890155      11.99029229
Pd       4.08697254       4.11793400      11.99826855
Pd       6.82155239       4.12143569      11.97112227
Pd       9.56728621       4.13975942      11.94281254
Pd      12.36578195       4.13265160      11.93417299
Pd       1.37110082       6.89256210      11.94010419
Pd       4.13935064       6.87026939      11.96482277
Pd       6.87097415       6.85831372      11.95140951
Pd       9.64205429       6.82915781      11.94515418
Pd      12.39111484       6.85622887      11.94896407
Pd       1.39048280       9.61302321      11.95959326
Pd       4.11777592       9.66324146      11.95099537
Pd       6.89476706       9.64088005      11.95142944
Pd       9.64982872       9.59779534      11.89439304
Pd      12.42487279       9.60955999      11.94161946
Pd       1.38567547      12.38003331      11.98497631
Pd       4.12057314      12.38099748      12.01693438
Pd       6.86816975      12.39901143      11.97280504
Pd       9.63028672      12.36702810      11.91406436
Pd      12.38695359      12.37862498      11.94193371
Pd      13.67725468      13.69755448      13.96118265
Pd       2.74935802      13.66738631      14.06509051
Pd       5.48782091      13.71409564      14.05213453
Pd       8.23400683       0.10633870      13.93008395
Pd      10.95411827       0.06985363      13.93623202
Pd       8.26575285       2.79290449      13.90650052
Pd      10.97161603       2.78782439      13.93405578
Pd       0.02806724       2.72897494      13.84446000
Pd       1.28523653       1.65910561      15.94951707
Pd       5.52759831       2.64910567      14.11310736
Pd      13.69811927       5.54926953      13.88943005
Pd       2.83249967       2.77481951      14.05814558
Pd       2.86997197       8.16363081      13.99076644
Pd       8.20532312       5.51883820      14.02088690
Pd      10.98507224       5.55097654      13.96844225
Pd       0.12521233       8.27298971      14.00495298
Pd       5.58801172       8.19918008      13.95304724
Pd       5.37684956       5.41213341      13.93105564
Pd       8.32776309       8.22891004      13.91853199
Pd      11.10119275       8.32553485      14.02221134
Pd       0.00596661      11.00610131      13.96898266
Pd       2.68151992      10.88339201      13.97014289
Pd       5.44049768      10.96244651      13.99598455
Pd       8.28043252      10.93492251      13.98709287
Pd      10.99980434      11.10136439      13.88480214
Pd      12.54109378       6.73317831      16.19305726
Pd       9.46642517       9.60026440      16.18868240
Pd       0.92901924      12.21477516      16.59799043
Pd       2.57877932       5.48427932      14.33639282
Pd      12.27039554       9.91738719      16.09108484
Pd       7.35285825       2.00729878      16.38607615
Pd       4.38908860       0.51830497      16.60902490
Pd       5.25066925       9.41018661      16.40070531
Pd       3.89825964      11.63918219      16.23128818
Pd       9.92446667      12.99433942      16.62476648
Pd      13.71850805       4.09128455      16.16653700
Pd       2.72713706       3.67378402      16.79956389
Pd      10.15056397       4.21456626      16.27085949
Pd       1.88921234       8.78202037      16.48105074
Pd       7.08597136       6.99127326      16.24531548
Pd       6.47237915      12.44981298      16.36340446
Pd       9.78791605       6.86456782      15.94084410
Pd       5.28921628       3.70215136      16.65391431
Pd      11.95385497       1.10567544      16.67231752
Pd       4.32943526       6.82261409      16.14122991
O        8.34746930       3.61122965      15.76310210
O       10.67940337      11.16069392      15.94034211
O       13.61373991       0.11620039      16.04311918
O       10.28606264       2.06250134      17.29737568
O        9.19687763       1.13999866      17.22025872
O        3.70473133       8.43082159      17.10360867
O        2.48778507      13.73211352      16.17689255
O       11.41075199      13.38296902      17.72936112
O        8.36573365      12.57640991      15.49132598
O        2.22697186      10.79511580      17.01841137
O       13.25123133      11.13662982      17.24497532
O        1.62236151       5.16468805      16.23398408
O        5.84973220       5.44893572      15.92753203
O        8.51944047       8.08896373      16.95989073
O        4.08076446       2.39855058      17.47414580
O       12.38419456       2.70217734      15.52607485
O       11.88909609       4.98631458      16.84562611
O       13.65862571       8.48026255      16.07519414
O        6.29398914       0.51716268      17.12335545
O        6.66803410      10.58708063      15.71740019
