115
Lattice="13.75323 0.0 0.0 0.0 13.75323 0.0 0.0 0.0 23.89" Properties=species:S:1:pos:R:3 trial_index=9 seed_entry_id=8 discovered_entry_id=9 energy=-572.6307373046875 status=accepted pbc="T T F"
Pd       0.00000000       0.00000000      10.00000000
Pd       2.75064538       0.00000000      10.00000000
Pd       5.50129076       0.00000000      10.00000000
Pd       8.25193614       0.00000000      10.00000000
Pd      11.00258152       0.00000000      10.00000000
Pd       0.00000000       2.75064538      10.00000000
Pd       2.75064538       2.75064538      10.00000000
Pd       5.50129076       2.75064538      10.00000000
Pd       8.25193614       2.75064538      10.00000000
Pd      11.00258152       2.75064538      10.00000000
Pd       0.00000000       5.50129076      10.00000000
Pd       2.75064538       5.50129076      10.00000000
Pd       5.50129076       5.50129076      10.00000000
Pd       8.25193614       5.50129076      10.00000000
Pd      11.00258152       5.50129076      10.00000000
Pd       0.00000000       8.25193614      10.00000000
Pd       2.75064538       8.25193614      10.00000000
Pd       5.50129076       8.25193614      10.00000000
Pd       8.25193614       8.25193614      10.00000000
Pd      11.00258152       8.25193614      10.00000000
Pd       0.00000000      11.00258152      10.00000000
Pd       2.75064538      11.00258152      10.00000000
Pd       5.50129076      11.00258152      10.00000000
Pd       8.25193614      11.00258152      10.00000000
Pd      11.00258152      11.00258152      10.00000000
Pd       1.40552730       1.35864131      12.00343621
Pd       4.10023572       1.36230997      12.01473984
Pd       6.84054164       1.38456828      11.94540062
Pd       9.57512057       1.39592898      11.89594876
Pd      12.38684272       1.37174114      11.92044161
Pd       1.40262132       4.09496333      11.97195238
Pd       4.14098778       4.11494429      11.97092180
Pd       6.82685260       4.16777479      11.95682752
Pd       9.56728621       4.13975942      11.94281254
Pd      12.36578195       4.13265160      11.93417299
Pd       1.37110082       6.89256210      11.94010419
Pd       4.13935064       6.87026939      11.96482277
Pd       6.87097415       6.85831372      11.95140951
Pd       9.64205429       6.82915781      11.94515418
Pd      12.39111484       6.85622887      11.94896407
Pd       1.37548412       9.60995414      11.97506493
Pd       4.11777592       9.66324146      11.95099537
Pd       6.89476706       9.64088005      11.95142944
Pd       9.64982872       9.59779534      11.89439304
Pd      12.42487279       9.60955999      11.94161946
Pd       1.36385377      12.37950682      11.97656585
Pd       4.13457770      12.40556160      12.01123359
Pd       6.86816975      12.39901143      11.97280504
Pd       9.63028672      12.36702810      11.91406436
Pd      12.37524665      12.36962868      11.97477381
Pd      13.67497110      13.68388568      13.99882676
Pd       2.68881417      13.74333413      14.05043169
Pd       5.46925815      13.74682527      14.09619407
Pd       8.22382883       0.11908606      13.90645979
Pd      10.95106643       0.06813289      13.93770517
Pd       8.26670618       2.81284919      13.86033983
Pd      10.95449095       2.81082612      13.90656027
Pd       0.06154630       2.70198201      13.90323532
Pd       1.30891651       1.80105047      16.14939578
Pd       5.51669583       2.72437938      13.92314554
Pd       0.02444254       5.45229252      13.93082404
Pd       2.82980756       2.79545789      14.13387889
Pd       2.81152870       8.19969359      13.96796005
Pd       8.23199903       5.51008624      13.95812934
Pd      11.02806478       5.56561518      13.97063425
Pd       0.07494300       8.20314507      14.04420644
Pd       5.55755873       8.25783695      13.93774942
Pd       2.83068356       5.45719450      13.88825257
Pd       8.29684799       8.24611779      13.89646647
Pd      11.06148829       8.33890031      14.01820591
Pd      13.71102661      10.96385517      13.98633608
Pd       2.67345919      10.94304495      13.92118348
Pd       5.42067259      10.97047032      14.01652925
Pd       8.18632474      10.96379620      13.96419795
Pd      10.92351743      11.09889754      13.92734248
Pd      12.48728306       6.73491596      16.17354202
Pd       9.07341914       9.55566212      16.29435770
Pd       0.89937805      12.13608759      16.56253339
Pd       1.54250562       6.13253948      16.07084366
Pd      12.09065539       9.93098922      16.11958622
Pd       7.08005401       1.90111929      16.08806081
Pd       3.70655433       0.96251527      16.56776281
Pd       5.41161693       9.21776590      16.58754029
Pd       3.88497631      11.28497284      16.28816970
Pd       9.80787548      12.94942069      16.55319386
Pd      13.46160806       3.92361328      16.51534992
Pd       2.59281999       3.78108387      17.37020946
Pd       9.96869689       4.18541456      16.21511587
Pd       1.81207766       8.69759746      16.48142685
Pd       6.97170738       6.80295476      16.01904362
Pd       6.38685316      12.13850449      16.37360004
Pd       9.73900019       6.88421466      15.90252589
Pd       5.06583136       3.94530523      16.22550358
Pd      11.92270785       1.04828615      16.57077778
Pd       4.26978683       6.70249041      15.87122094
O        8.16291030       3.54151433      15.74811359
O       10.41377853      11.04703817      15.98569361
O       13.73313503       0.15947961      16.06923706
O       10.18080193       1.99863342      17.10972401
O        9.09759552       1.09229653      17.04179851
O        3.69778962       8.27488076      16.94344245
O        2.77420318      13.01849422      16.02032937
O       11.33851859      13.32881886      17.61106514
O        8.22028624      12.54310079      15.44151171
O        2.10114456      10.64406531      17.07355910
O       13.08033210      11.24738198      17.17609985
O        1.01841400       4.92045784      17.60775573
O        5.72876800       5.47481681      15.21528594
O        8.32492673       7.85961107      16.96317499
O        4.21485550       2.65912450      17.42221291
O       12.36870587       2.65170749      15.44316015
O       11.69550803       5.00013072      16.80804301
O       13.53174118       8.55981424      16.11423976
O        5.80710788       0.31977087      16.20908677
O        7.02937656      10.31875986      16.71751229
