75
algorithm=ssw_guard_v6 size=75 seed=0 index=0 energy=-277.9178483656908 entry_id=0 visits=5
Ar 0.783093933161277 0.829791188063039 1.320884951694112
Ar -0.4111183863480756 -0.550542409995375 0.8165222316719599
Ar 0.9291084710561944 1.600009626316826 2.11983614510613
Ar -1.219640436296194 1.336413733072923 0.04833873232295419
Ar 2.242091971915655 2.443484943537238 -2.078697600929035
Ar -1.462715029708144 -2.883995180197298 1.765934757834442
Ar 2.252030319396798 0.3498889498113759 2.87882900956565
Ar 0.9660601592677458 -0.09644505435561011 1.833817285691456
Ar -2.720094219568368 0.8314655350066659 -2.242962310983861
Ar 1.933850789979035 0.3507402596347987 -0.9888000236130123
Ar -2.138291414111838 2.002966004813286 0.1352885098657763
Ar -0.3741224916863949 -1.537294339565102 1.327873380375392
Ar 0.4901402126681256 0.6508675853857985 2.430974955982082
Ar 1.691792155148722 -0.5582430178638662 0.2771510030336731
Ar 1.04281540156932 -2.198501484255215 0.5540127866927922
Ar 1.788521257754429 -0.7181891446199544 -0.8257657403144734
Ar 0.007053756080870573 -2.383539340612175 0.7914346563360897
Ar 1.394523924267854 2.506526256760427 -2.880451629445588
Ar -1.174041994102004 -1.775813579436678 2.022251578549188
Ar -1.992347758586872 0.06038347829008298 -1.809111764154817
Ar -1.051201751933365 -2.238616318690261 1.017332177776322
Ar -1.673429097346702 -1.891892236297809 0.2254363834077609
Ar 1.320031057514837 -0.9390811651233817 1.239001092129995
Ar -1.819547323692029 3.063912077866106 0.2935226051265286
Ar 1.675650376003238 0.1862218248115809 1.062029074542046
Ar -2.47691270697158 -0.9399377109632405 -1.865128456781637
Ar -0.7762836077411037 -2.606722955327465 0.03735972832724566
Ar -0.3497849278649486 -2.513487674697601 1.83864503836085
Ar 0.4251725622758148 -1.279579643595619 0.6115005678724348
Ar -3.392579061073549 0.6271213786267582 3.615187613666112
Ar -1.802667975414867 0.5274552634713234 -2.800923725124216
Ar 1.14377598449324 -1.379763123766397 -0.1882830807544358
Ar 0.6561139254975772 -1.867813894705257 1.558581385221159
Ar -2.519700784461996 0.7788734425194012 -1.15066331613502
Ar 1.234382957525897 1.900694338806771 -1.900644023358136
Ar -0.1279760203970272 0.7556356614901925 0.7140763275701327
Ar -1.209750430574418 2.38667809733447 -0.3596771555612631
Ar 2.435652339890104 0.5006743244970219 -2.06774231574348
Ar 1.063189988113546 -1.088094100588741 2.320262692398843
Ar -0.1314334151029104 1.282723816987526 1.728788885710026
Ar 1.234417667556371 -0.09528372108884174 2.873331383786757
Ar -0.1448189317087512 0.02033115078954483 -0.0811402294710019
Ar -2.047319025456366 -1.98919967595246 1.313659763237901
Ar -1.83346967174558 1.605549550569954 -0.8567447077319489
Ar -1.343755818925687 -1.156095679740314 1.067372667046174
Ar 0.6476815133875817 -0.1704659621741446 0.7512063868395945
Ar 0.3176440806261812 -0.814006770525562 1.584013590439389
Ar -0.7370715852086407 -0.6953191708642661 1.914031700762961
Ar 2.209565267269455 1.42066191417572 -1.500673816574823
Ar 1.635195612137412 0.7235636643343799 2.047194863954168
Ar -2.609747758648198 1.775866855289802 -1.64893538519627
Ar -0.06454703287616434 -1.505639749939016 2.366765880578417
Ar 1.335374902352292 0.7695978742183036 -1.925039422579496
Ar -2.922031273573332 1.658979968103357 -0.5850209878876244
Ar 1.319510350014843 1.014506138809635 3.053298580938077
Ar 1.940432124307403 -1.578789375318315 0.6246475493935602
Ar 0.2416494793723818 -2.064858790833552 -0.2200415049867949
Ar -3.492602812945768 -0.8366712136523041 -2.334660718882358
Ar 0.04139738367009758 -1.008162134588718 -0.3864105195031491
Ar 1.96404724262396 1.488111514521636 -2.625438812040857
Ar -2.251156016401755 0.9133748477669718 -0.0801732814200956
Ar -1.218939407911053 2.216510344739035 0.7454983710049343
Ar -0.08236663314563138 0.1628398866491083 1.628826735603775
Ar -2.650164345079487 -0.1921221810728706 -2.679569127688262
Ar -2.237953301090913 2.47176767216672 1.145750396070127
Ar 0.7903257558282168 -1.0819076655974 -1.184164068649029
Ar -3.099784682820815 -0.03090434001910357 -1.658192391780675
Ar 0.8667783201882948 -0.2974712609167446 -0.3597019251225315
Ar -1.722426611611157 -2.971607496183039 0.6321978350848356
Ar 0.183577413069484 -0.4145849248695079 2.572443810694359
Ar 2.406722457812801 -0.6688762879553795 1.101439436469138
Ar -0.6695843317762102 -3.252314282102101 1.002848891355012
Ar -0.6182181647085583 -1.535073041147199 0.2909669185164679
Ar 1.973306924820935 -0.3929645099893653 2.070213357861332
Ar -1.716247103469975 1.134344313401303 -1.857034893227222
75
algorithm=ssw_guard_v6 size=75 seed=0 index=1 energy=-366.2816959284574 entry_id=1 visits=9
Ar 1.024444596543279 1.154299954867299 0.8483497915200144
Ar -0.09719213138225166 -0.2358384413874893 0.9966786740660488
Ar 0.183887516914164 1.830915257425062 1.160813946672201
Ar -0.4023960503061074 0.9711822297829752 -0.3782738454112517
Ar -0.2570017305211568 0.657493369772386 -1.39707715156667
Ar -1.391054786714399 -2.396128040689108 1.031158195822079
Ar 0.5509305771000074 0.5372965674952235 2.820293739894702
Ar 0.918091311542432 0.08904797743963062 1.022900905510708
Ar -2.144557480433121 0.2978854352910605 -0.3912509345723961
Ar 1.658329130999046 0.6263156371323167 -0.96605042877182
Ar -0.5404288287720024 1.193741116707686 0.6580814144868106
Ar -0.3292982102493787 -1.278579031742175 1.097777764506164
Ar 0.1417850573988543 0.7409765720706752 1.383302384264038
Ar 1.314680666158555 0.3771516348705229 0.05462777306455311
Ar 0.6914349927759482 -2.548402734880403 0.3275556040428402
Ar 1.963881083332327 -0.3480980255641564 -0.4915326750743969
Ar -0.1710902321757265 -2.794443465856324 -0.3342286418473561
Ar -1.120476583355373 1.336179780037295 -1.072962475116613
Ar -1.345385358955369 -1.415485341397636 1.544843416263802
Ar -1.109150626950772 0.2526785761947646 -0.7429448375404566
Ar -1.172775588129751 -1.504993324402844 0.4402496900429849
Ar -1.571291689471135 -1.509730265660981 -0.5801724870950676
Ar 0.7220518812613813 -0.9538860131741916 1.158753194952986
Ar -1.789403419094028 2.004176771922873 0.2248264518709966
Ar 1.922419672710434 0.4359863835036675 1.007034617944261
Ar -0.7895748888993339 -0.7906007595587339 -0.9169728200657723
Ar -0.4970582069551772 -1.752673305065206 -0.3951681450395453
Ar -0.376038378658158 -2.256921390884137 0.605839342523341
Ar 0.3539268051143133 -1.517043311104797 0.2786103836022526
Ar -5.215899421030978 3.08353780165536 1.038072710982633
Ar -1.861080106389858 0.5838875810503109 -1.440974250928833
Ar 1.252713494578044 -1.188312794804516 -0.3332670096117851
Ar 0.4858367761117178 -2.015579769753236 1.271602899411591
Ar -1.805334892153591 0.2347273334851888 0.6613178618900867
Ar -0.01810629113870766 1.718073081172029 -1.029204130823399
Ar 0.2686313771508754 0.5480988405824371 0.3196568532749548
Ar -0.7520612682750638 1.950262780070252 -0.1583742879862439
Ar 1.688399171261665 -0.282940508504312 -1.597574307241489
Ar 1.592139102613805 -0.4600397846975245 1.639077399333682
Ar -0.6774518056774709 1.419897687160122 1.732280928317402
Ar 0.4366434372255609 -0.1947729955401188 1.954389033952527
Ar -0.08459614351825263 -0.02158219851223718 -0.5468062200000559
Ar -2.10235370854409 -0.9498211168462247 0.7382670492827781
Ar -1.400680687869643 1.023202058395867 -0.01503926601519797
Ar -1.127221611790779 -0.5541349258278739 0.9504404304500984
Ar 0.5965415074437076 -0.4735359484630465 0.1750490740095516
Ar 0.1840664792628418 -1.283532532699281 2.063549149998119
Ar -0.6247284255075983 -0.5459566502361881 1.907307714553673
Ar 0.8065500967128969 0.433733169901246 -1.685764867245388
Ar 1.159986698990501 0.6567462348437392 1.893486389493312
Ar -2.4341464357072 1.093547621423304 0.3520802306774138
Ar -0.5242629314911095 -2.143594833661114 1.717863745133869
Ar 0.6179793591904357 0.8422273770992359 -0.679939372348857
Ar -1.563573354406836 1.267382808009121 1.043380496078411
Ar 0.3500091431441512 1.414811030327317 2.189943992266442
Ar 1.365973157332054 -1.684951998610343 0.64907653329531
Ar 0.6014740430917567 -2.045901682236928 -0.6617838713461803
Ar -1.832785115030484 -0.5028668501727955 -1.119434195798072
Ar 0.2363886498594901 -1.035058804487988 -0.6920645617513925
Ar 0.08956488548450728 -0.3998539513293484 -1.556782355733841
Ar -0.7706030220728382 0.2080963061070399 0.282998649812695
Ar 0.325747464169228 1.624578040513773 0.08089562704079487
Ar -0.9220349927671166 0.4202185043721999 1.343548183135997
Ar -0.9864372199182905 -0.09559084379008834 -1.759597102535025
Ar -0.9016731640334537 2.172786450520195 0.9247815313979263
Ar 1.006466616932041 -1.139405725042466 -1.428163731403141
Ar -1.483014884339675 -0.5413817824041165 -0.07858221402680515
Ar 0.9359837118257226 -0.2107950715922713 -0.8131007901825363
Ar -2.144957272324107 -1.965375336580003 0.2893897476562441
Ar -0.3947723921036431 0.4860774951737857 2.291490041928469
Ar 1.617977078278742 -0.5941354471437864 0.5382372830100253
Ar -1.234261024152189 -2.488898967048566 -0.07526110205167424
Ar -0.4389051084828391 -0.794713491860127 0.1239696590319829
Ar 1.298708213633391 -0.232542957256485 2.654221638804531
Ar -2.160777690199185 1.385372858186916 -0.6937097817615754
75
algorithm=ssw_guard_v6 size=75 seed=0 index=2 energy=-356.8633609333967 entry_id=2 visits=3
Ar 0.9134448497601412 1.216067539742336 0.9610689531198461
Ar -0.0662836312084949 -0.06472474657295495 0.1210971810724856
Ar 0.7920747566863459 1.80110235494264 1.849549953743489
Ar -0.7977589739968605 1.128991957401856 0.2566136451202183
Ar 1.209749681570908 2.017651091425574 -0.7299974488494755
Ar -1.892921957436949 -2.031438127080532 0.6709061707122164
Ar 1.084258560913314 -0.2003271925544206 2.463143752074973
Ar 0.7855519822440512 0.3469368069426396 1.573305197089556
Ar -2.028293133713162 0.07206013353681476 -1.135316426015109
Ar 1.672757440097369 0.1263757834636997 -0.3192939026606109
Ar -1.831544907509732 0.8005715217278021 0.6105807690242133
Ar -0.5586515813979085 -0.8609899368889666 0.6709784129929871
Ar -0.06510627456212857 1.120360444541455 1.899871669533026
Ar 1.538398654801619 -0.5661059484224346 0.5566139455070153
Ar 1.031925099338662 -1.747174360215237 0.9424185994347153
Ar 1.69149568470614 -0.9853222877777877 -0.6985519564771002
Ar -0.05956803227082617 -1.866911285701392 0.4237034284014301
Ar 0.2525930117938684 0.6041990081130166 -1.5635401217468
Ar -1.610835658222683 -0.8750985347978867 0.9191317855086564
Ar -0.7507784885646551 -1.022328061998822 -1.222307503242619
Ar -1.201009924012909 -1.371615281495598 0.02423052293100267
Ar -1.775744541150285 -0.9136143797935056 -0.7864754616825234
Ar 0.9728369034100306 -0.8061196728254484 1.553848688782462
Ar -1.118530025641023 2.086599649091812 0.6481471215457455
Ar 1.83927992943294 0.5728248471033326 0.724158685226307
Ar -2.645974448706069 -1.579419985062631 -0.8927118653648194
Ar -0.6906123271814991 -1.978811828941937 -0.7218838647378749
Ar -0.9372148255600177 -1.775288304778325 1.095941865487826
Ar 0.4942190243897688 -0.8836836480628625 0.6015339391332987
Ar -0.4755268677243483 -0.7278824554485752 5.993163877406026
Ar -1.547887079923826 -0.6573542677492646 -1.858844890876659
Ar 0.8564253193066841 -1.608861244073632 -0.1538997310233902
Ar 0.06404339810291555 -1.45751672541338 1.420403298499453
Ar -2.484598165252129 0.6599171424767321 -0.3067790139425732
Ar 0.2727875040066374 1.4772826210488 -0.8895096956373492
Ar 0.254971588963883 1.124833940719365 0.1251159347684188
Ar -0.2836555793385047 2.048061404778577 -0.09166366201648604
Ar 1.10583856780681 -0.1772453373307118 -1.305929572671988
Ar 0.1915134217245516 -0.910133959634008 2.343520459973888
Ar 0.7598436750202213 2.072366994170377 0.2883568465473465
Ar 0.02651804103326339 0.1551215609466805 2.373208906317104
Ar -0.3758822421111596 0.6356846008661449 -0.6162568730143927
Ar -2.316382629599181 -1.232215352866897 0.102703828031962
Ar -0.9074195975888296 1.528164549382906 -0.8297542423892492
Ar -1.919113644157335 -0.2212601532331299 0.08626656061778425
Ar 0.8495662944040884 0.2416477207596788 0.4983793874126977
Ar 0.01320164464967758 -0.3483065650913372 1.393897797164005
Ar -1.015261631917236 0.1074823903919664 0.6228909874074237
Ar 1.328459927345035 1.152795002065961 -0.06349868579508938
Ar 1.643351648159825 0.9974113515259038 1.75293101948648
Ar -1.91235417677071 1.169818552406414 -1.168743004786645
Ar -0.8424019542145765 -0.8965222522701791 1.759602179416965
Ar 0.6637307418760937 0.4628877992262967 -0.5620491785698563
Ar -1.7569671441338 1.590161254610849 -0.1357035604442243
Ar 0.8413474752399663 0.900437963179606 2.516591256104769
Ar 1.882086759452365 -1.553137142303183 0.2491077632930875
Ar -0.1345156153463466 -1.101787610901142 -0.3087656299004553
Ar -2.59357829306755 -0.7586669989372475 -1.598082319494948
Ar 0.008780984354156321 -0.2894064825383259 -1.000038493401977
Ar 1.302023239666672 0.9988346886882696 -1.208987622406244
Ar -1.410359839159049 0.5817525593916301 -0.4093320919746255
Ar -0.08630010639863907 1.72483157594685 0.9697308282902559
Ar -0.1096384138030722 0.6145705404636219 0.968304373749685
Ar -1.59245562490335 -1.724515098146904 -1.463167260026238
Ar -1.019238835695625 1.193501872284631 1.303069036851737
Ar 0.5928085750192753 -1.20128142441603 -1.153910058983401
Ar -2.782232124105645 -0.4669727739238066 -0.5453027827739928
Ar 0.816935458603789 -0.5386386687070894 -0.3144214984636954
Ar -1.802505342251205 -2.111465136518085 -0.4512604271704025
Ar -0.8560605100873265 0.2087179682919132 1.708534594036147
Ar 1.959958596354951 -1.221205107349483 1.326767822226508
Ar -0.9757576887375505 -2.45383923217716 0.2234706526725625
Ar -0.9417985746689673 -0.3783863253888828 -0.368186572589331
Ar 1.794524117983146 -0.1095179200288637 1.572637393994428
Ar -0.9572928165299626 0.1196546129000218 -1.353697323238598
75
algorithm=ssw_guard_v6 size=75 seed=0 index=3 energy=-361.7220248516093 entry_id=3 visits=2
Ar 0.8160938470174678 1.154253068913547 1.191739430949471
Ar -0.1886047497974598 0.1456392699319375 0.1691188752755014
Ar 1.083661252780108 1.659430533547165 2.129680989137881
Ar -0.8497730198763387 1.102471052367881 0.3656456737679553
Ar 1.411766901335745 2.165992079683738 -0.4006535186639976
Ar -1.894854192545131 -2.289971303160224 0.6645056385492637
Ar 1.139883898282546 -0.3226559796179925 2.418294303343274
Ar 0.6057914585720523 0.1048948324143195 1.592216896127345
Ar -2.122788049236579 0.1921631382685566 -0.7156248025532526
Ar 1.580229711769106 0.2147517352923322 -0.2288066701473703
Ar -1.90059047444266 0.9087835459066257 0.1719990894884679
Ar -0.9416021362064201 -0.6685387184398883 0.4220906732545204
Ar 0.03451729766401504 1.336953550513312 1.962320218556034
Ar 1.33826337887745 -0.684547830184589 0.4587820019824345
Ar 0.8453420205949379 -1.707570619129358 0.7659829804242213
Ar 1.55630811650967 -0.8174869176313266 -0.6770465437652791
Ar -0.1592472590047967 -1.679516272845285 0.3190851772316537
Ar 0.4141561790595885 0.9545317695526404 -1.46237841756362
Ar -1.667229946007092 -0.7104433367149063 1.221740892118889
Ar -0.8014562763139176 -1.074901473426706 -1.295574654451165
Ar -1.054144729075282 -1.638395378314236 -0.2564717901267923
Ar -1.932304032964321 -1.588529848371282 -0.9157919284570035
Ar 0.8684012448252567 -0.9367979699030869 1.5066315256211
Ar -1.504204961555837 1.734669774944179 0.9223944427086476
Ar 1.80373337919575 0.5935473631110285 0.8116808686522471
Ar -2.627643496697747 -1.936404325785982 -0.1402697410445426
Ar -0.1233183338839592 -1.837317595494478 -0.7989190742895791
Ar -1.066865289935854 -1.607984477100716 0.9398382886548103
Ar 0.2624560474497539 -0.7331158087301545 0.6140681246613244
Ar 0.231345193292703 -0.1165068598820964 3.104448706090255
Ar -1.571817710502913 -1.49582380096254 -1.961786924605548
Ar 0.72278235091871 -1.422729924480789 -0.2638551548554542
Ar -0.08339653413801698 -1.439836907262035 1.381835355796517
Ar -1.446042502911292 1.0396035415616 -0.9006581351806711
Ar 0.4533367345475126 1.695587841978408 -0.6307751621287195
Ar 0.1985565723847975 1.17978288792671 0.3122699626952918
Ar -0.373125249939129 2.040238343809356 -0.0128477309172354
Ar 1.036979486297832 0.02939004409782693 -1.246798775890733
Ar 0.08335341189975549 -0.7149932459764766 2.21180941802842
Ar 0.6562998963266345 2.123066877674133 0.4782672922746775
Ar -0.2872280096005267 0.3208460614472296 2.189485548386346
Ar -0.3956315305861885 0.9751387193934824 -0.5844297873243161
Ar -1.892934852016846 -1.267170862372954 0.2961195310644955
Ar -0.6728302620215801 1.880942638480821 -1.072351748963147
Ar -1.998576008490491 -0.1911045252551667 0.3022921906286143
Ar 0.7986413031786233 0.267760375273157 0.5584472917643285
Ar -0.4407225910549398 -0.372278732265805 1.328655773290858
Ar -1.21488131919468 0.2681652472324434 0.8967193809845015
Ar 1.257599824508705 1.239579116662058 0.1503406148136065
Ar 1.53550446092947 0.6704740766126762 1.8800351449386
Ar -0.6505268413113771 0.8952117992022363 -1.647391583505776
Ar -0.9526563383222134 -1.0906491731246 1.965938456012499
Ar 0.6074190320225983 0.6372070501876637 -0.4658730888679804
Ar -1.427425469219989 1.858085553192484 -0.1919497311119019
Ar 0.6887093804947592 0.6946337045180605 2.542011822464691
Ar 1.745158159222538 -1.63260902087278 0.08607598284315782
Ar -0.3012576767373541 -0.8362228105476002 -0.3784582862838849
Ar -2.052416246526665 -0.6362646213737359 -1.453315581015363
Ar -0.1190496149310001 0.02758347574117403 -1.014524943558136
Ar 1.418474119888272 1.135808214644073 -0.9478116644495176
Ar -1.136938969818541 0.2468355100820172 -0.2318451248252665
Ar -0.3375266464400835 1.773300602427868 1.052533355244195
Ar -0.1836481552214657 0.6459692603096551 1.129240944878987
Ar -1.063343262670308 -2.173234571262356 -1.236005848182507
Ar -1.017000791735692 1.054148287833424 1.654417505715635
Ar 0.4017958679288257 -0.9321781345011344 -1.22157974571848
Ar -2.561829987176876 -0.8100207396721997 -0.4516938272329462
Ar 0.6494395777856868 -0.3766854588701649 -0.3136546643931186
Ar -1.699066117332075 -2.523090786980983 -0.3904800646869178
Ar -1.288055502981387 -0.005034945651389836 1.961256532510258
Ar 1.830219342836633 -1.371967312635983 1.173168058953832
Ar -0.8513249412899719 -2.532948217922334 0.3372021705620034
Ar -1.466507510752469 -0.6990535089628043 -0.5301664633774581
Ar 1.70447933871391 -0.2908472184972126 1.422279196598163
Ar -1.170768830734328 0.004022904445253116 -1.298346636880489
75
algorithm=ssw_guard_v6 size=75 seed=0 index=4 energy=-371.6581900689719 entry_id=4 visits=2
Ar -0.2063837766411442 1.87968682364332 1.485795531875624
Ar 0.1486344581695135 0.1810430830900742 0.05262741954304447
Ar -1.837630349593176 1.288911737725565 1.129291977558511
Ar -0.9199295098659168 0.2088780346422772 -0.2063016291809837
Ar -0.0678803947950688 2.18263688094889 -0.5851927878659097
Ar -0.7791744350529612 -2.256029038484395 1.165460810417088
Ar 0.342694233761626 0.1136588172694167 2.584206743698419
Ar -0.1460869909467948 -0.0163383297160132 1.347469562062711
Ar -1.54056009922265 -1.275247508317307 -1.289127897751269
Ar 1.666812896540034 0.9911961454122044 0.6592584639369119
Ar -2.197399498307433 -0.3799231059845063 -1.361463463321343
Ar -0.5540327245153311 -0.4873451330681478 0.4741876320098601
Ar -0.9287869970196149 1.655705181517463 0.6426680127059359
Ar 0.7782545694530206 0.4216024041284477 1.053695506564933
Ar 1.54803535755985 -0.736661691642132 0.900791651159949
Ar 1.939508324306543 0.08053460965518347 -0.7003224447465443
Ar 1.020298002636167 -1.518515076163411 0.3265689666549377
Ar 0.4270551720410399 0.792641443480068 -1.787385851692479
Ar -1.539849271982286 -1.514863494475382 1.52159255282319
Ar 0.3830160620800281 -1.31115287980421 -1.167659054944577
Ar -0.05768129704116987 -1.326273409772912 0.09023157013772055
Ar -2.155600906765366 -1.446757054827289 0.5791141520810091
Ar 0.8615011719065534 -0.3784118245884025 1.749458990870765
Ar -1.967502676485611 0.06057733369248392 -0.3798723188832001
Ar 0.7988436400470582 1.484061470652463 1.21030095813307
Ar -2.201587589238777 -0.6325663962356697 1.395208935310091
Ar 1.3261302450025 -1.628952541061431 -0.7261957143349967
Ar -0.2525412825930092 -1.24930815093519 1.18690061929618
Ar 0.5038925434272052 -0.6037225941322238 0.7145994132715826
Ar -0.7363898319455121 0.1618511565818908 2.232496294251482
Ar -1.576359086317694 -1.882665983465394 -0.3217331718392027
Ar 1.809197585256534 -0.8402835631070917 -0.1479624050414369
Ar 0.7926661769064575 -1.41749193820102 1.412595795137143
Ar -1.132814960057191 -0.1856949998228406 -1.201152884917839
Ar 0.5254797160880089 1.307363838833145 -0.8379907882125712
Ar -0.3749303753048356 1.164872098846596 -0.1849788658728201
Ar -0.4357229550527757 1.454494313728335 -1.338968617561537
Ar 1.553198169738238 1.061746597916488 -0.4485136158472534
Ar -0.1330619081418306 -0.7589986071729891 2.134680457225027
Ar -1.132688480114005 1.864348258135271 -0.4879468382466498
Ar -1.713683919096045 0.2999201759663847 1.717663090353435
Ar -0.2073228804807894 0.4624267375245051 -0.9598344542714823
Ar -1.075915587248587 -1.42476185297885 0.5346771790665742
Ar -0.6400850244931998 0.467273359321922 -1.935179063056563
Ar -1.191017063372868 -0.8542052943003201 -0.3648702024906043
Ar -0.1514125417803333 0.9366352438173849 0.8412880945660427
Ar -1.07062740311766 -0.5486181192463963 1.412136072868701
Ar -1.636356065908764 -0.481347731824615 0.497840565041014
Ar 0.1159653151702052 1.94426429392594 0.4525169806678385
Ar 0.113315988064481 0.8974958419407497 1.882642890120961
Ar 0.2952048436306643 -0.2811509621523449 -1.584774051225532
Ar -0.632854209589842 -1.721891622194119 2.113962335252837
Ar 0.6927040553361117 1.065937688565648 0.187929197621972
Ar -1.275619268138966 0.8658978116715494 -0.9835682712878225
Ar -0.9203184833721717 1.078393683299224 1.654438456548808
Ar 2.291980423515125 0.03680649358968409 0.3857527585419068
Ar 0.7477367102230363 -0.7129306607716208 -0.3341640839099295
Ar -2.248688058693656 -1.01338214768815 -0.4468720110164909
Ar 0.8456689332513815 0.2725270306256964 -0.8125240414009436
Ar 1.024836608179962 2.03420075672394 -0.1706585918391281
Ar -0.2386137738839759 -0.559574157090584 -0.6669010631922888
Ar -1.590616013124262 1.014413033508161 0.06416241832778044
Ar -1.090444212602438 0.4089180640178927 0.8329709941127318
Ar 0.3980249951372461 -2.147488987934188 -0.4090948696529062
Ar -2.220541699450936 0.3756619294242273 0.7202892571948506
Ar 1.305921715139921 -0.6451451570163721 -1.251445698347861
Ar -2.736202267657986 -0.5166917284766799 0.390383819364377
Ar 1.247771494925848 0.08543289959416063 0.1723291527252309
Ar -0.6091902859659738 -2.300240375095427 0.06836751410574859
Ar -1.2519639977341 -0.8345310113914878 2.419963581119286
Ar 1.809560343940616 0.1813624479976991 1.377142644158348
Ar 0.2401828914798742 -2.144466173281819 0.756060259556315
Ar -0.5911738173851017 -1.643959085178049 -0.804132728768637
Ar 1.154305021964628 0.7141311785961986 2.049090454519301
Ar -0.5481457698815685 -0.9658875746509366 -1.671692927375405
75
algorithm=ssw_guard_v6 size=75 seed=0 index=5 energy=-374.9883391817395 entry_id=5 visits=2
Ar 0.348803020070698 2.301280715665024 0.5795961773154809
Ar 0.1157962318626154 -0.06036608582485475 -0.0293331740902207
Ar -1.294475890661974 1.660685285132706 1.027030424728153
Ar -0.9642262177754138 0.1238751067312053 -0.06949528801496732
Ar 0.1795259120718132 1.294590530067172 -1.385772005660906
Ar -0.780908293352766 -1.772822007886561 1.506512396776147
Ar 1.137924282162739 0.7685466453186153 1.349257335779109
Ar 0.1645687836498535 0.4343649757249923 0.9419079722939868
Ar -1.732271012021223 -1.226637103357076 -1.191422906515337
Ar 1.72574405942572 0.6095764095517111 -0.4578526931096383
Ar -2.122162826912049 -0.2030202731664791 -1.073319467471571
Ar -0.5233439639451286 -0.4023454477616334 0.7859405315721605
Ar -0.6500294183073697 1.992525412751989 0.1962914901640482
Ar 1.082240803560371 0.2612140774563619 0.3643688622569589
Ar 1.92477616945782 -1.273655547583453 1.112768212804628
Ar 2.119837800035766 -0.4162579778583623 -0.5845090494487131
Ar 0.9506935880966922 -1.602303912267073 0.7055365460411088
Ar 0.9836002353284169 -0.732596074522706 -1.601110373958333
Ar -1.189033248718724 -0.7500013915973128 1.614467683611353
Ar -0.1860698594525888 -1.920579053804357 -0.3061744294226722
Ar -0.1303966757972606 -1.420278616231248 0.6723467455355492
Ar -2.276815224756671 -1.064816017742023 0.6602980873928243
Ar 1.531538176385315 -0.2518495590684804 1.229482390173486
Ar -2.052004269671223 0.3097614517100469 -0.09890152651325163
Ar 1.337393176659686 1.641285048966634 -0.3347276446902863
Ar -1.581329172282164 0.278442834036119 1.729954590074389
Ar 0.8983520478095399 -2.105381807496054 -0.2785419076830896
Ar -0.09181070904631645 -0.9213734605363245 1.65688027004612
Ar 0.5564865632539377 -0.5830080967439676 0.8261219307729729
Ar 0.2182849093502568 0.9406145351476231 1.928079470099695
Ar -2.3514145309601 -1.567920360616584 -0.3269686762043449
Ar 1.873079323332879 -1.778480603005301 0.1201941263481877
Ar 0.999268457897501 -1.106998042719694 1.692883506662014
Ar -1.02599534057148 -0.3833479200596532 -1.045090982985357
Ar 0.5849570578816794 0.2815294119401476 -1.482754285755435
Ar -0.3279802176141352 0.4639202696601146 -0.8785857784913131
Ar -0.4187641154883383 0.02270258063608456 -1.865280997138539
Ar 1.676638470239725 0.1124642320478266 -1.445308125477555
Ar 0.6050672569320216 -0.08460097854330165 1.804825753366773
Ar -0.7260345573192123 1.486989942458114 -0.7908704633887135
Ar -0.8659076288843141 1.116035269257061 1.895284895349258
Ar 0.05865406629628213 -0.5500635187352158 -1.003849845906092
Ar -1.206031533354876 -1.245200287559533 0.6367678441889872
Ar -0.01854119797648665 -1.001547071460447 -1.996092610986987
Ar -1.654468361296726 -0.7157547703163558 -0.2101360044944508
Ar -0.2728034095794276 0.9629668956405535 0.08424227264608826
Ar -0.4914950927246433 0.09467813277346744 1.751040645733021
Ar -1.593381138025397 -0.2099372505686648 0.7524842587332634
Ar 0.2565109988714762 1.801169219894363 -0.4059311991953904
Ar 0.6961493191742545 1.273397194340208 0.4782723461922395
Ar 0.4463846665191943 -1.574049789226069 -1.141851860916772
Ar -1.955235952712851 1.317415242787904 1.856698923969882
Ar 0.6410399474410343 0.780284097414728 -0.4983435381003947
Ar -1.410791586357201 0.637520292129078 -0.9458483242825269
Ar -0.2096115315430146 1.464739385152818 1.064605746878242
Ar 2.569632254783792 -0.9360043556362949 0.2796955329883405
Ar 0.505687874252829 -1.078348351131144 -0.1539434533696794
Ar -2.743945030614644 -0.5405933345745304 -0.2109991173012576
Ar 1.029048962902382 -0.2321696820880798 -0.61296248879711
Ar 1.273514816690309 1.141008209960282 -1.32215467349077
Ar -0.5742486394293016 -0.8974623976866968 -0.1865539711056522
Ar -1.35485698108104 1.149886836070068 0.04035345394537651
Ar -0.913827898770435 0.6290873733843737 0.90316530433426
Ar 0.2624794998990617 -2.453357769346334 0.5562134501193738
Ar -1.997338123648267 0.8258209119230712 0.8685312379132153
Ar 1.427479832622379 -1.251845778525488 -0.7400496457130712
Ar -2.672396227873064 -0.03552126145864124 0.7801695858203747
Ar 1.470780117141056 -0.7527465160027268 0.2451352276592593
Ar -0.826863316223419 -2.276335297713664 0.5267305958927943
Ar 0.01557373432327103 0.1628174689638305 2.71102750000107
Ar 2.173773371182729 0.08540752988333802 0.4074995068264077
Ar 0.3082039556944203 -1.951867168219332 1.538458744964158
Ar -1.268343316605492 -1.746231204821717 -0.3337015437937281
Ar 1.785905948231231 1.109465373569618 0.5281592899773233
Ar -0.6385720813167682 -1.39812625889401 -1.169715651449124
75
algorithm=ssw_guard_v6 size=75 seed=0 index=6 energy=-375.1667655033301 entry_id=6 visits=2
Ar 0.08151859173389432 2.190326321565087 -1.299134015372772
Ar 0.1750662420679802 0.1651659930809531 0.07350445556445623
Ar -1.55272096052121 1.394090343315015 -1.177132065910465
Ar -0.7062813712515971 -0.1751271815275152 -0.4824547497381614
Ar 0.9900978648370159 0.2056193127714302 -1.6632411974408
Ar -1.441231743658083 -0.3341410274986045 1.874204892951742
Ar 0.2996875435185889 1.999214131272736 0.5692436319112576
Ar -0.304320636568538 1.131004718381051 0.2450138140461754
Ar -0.7614167605243261 -2.088554395962083 -0.3484271998571806
Ar 1.771534818771225 0.9735685161615126 -0.07542750262681304
Ar -1.136643562120458 -1.501466712668764 -1.202392603390055
Ar -0.8121819951215086 0.2110021222310549 0.5414193075434958
Ar -0.5539034474236358 1.340503134831615 -1.640341648565906
Ar 0.7786613226193695 1.014435179642174 0.3979912384781628
Ar 1.053526332383816 0.8255128917230259 2.273340453138568
Ar 2.153736218820842 0.37940823783485 0.7757250580681364
Ar 0.4516130278556822 -0.04222505381791358 1.943171652366019
Ar 1.746196422856099 -0.9361291677287373 0.04687372632135882
Ar -1.822381196705312 0.2418791044292754 1.008192164485456
Ar 0.03697039067703672 -1.335933783524754 1.21897878220004
Ar -0.436669704938582 -0.3713853728263264 1.393380178078212
Ar -2.222950281946728 -1.014515184735269 0.3338544240394402
Ar 0.6763694068195677 1.413592129518815 1.420644387824325
Ar -1.598659061263948 -0.5141664152316218 -1.036331291308152
Ar 1.395492853329494 1.571197486393658 -0.9312574305768648
Ar -2.196840468187477 0.8304298830988307 0.1491345991045761
Ar 0.9327503703065209 -1.027388179701726 1.769410506789424
Ar -0.9280350534611373 0.5947464994820015 1.564981146256911
Ar 0.07193675704411377 0.5489644298772144 1.094290694554064
Ar -0.7840074399567298 2.116265795011253 0.4091903170844466
Ar -1.754245270939166 -2.005641955006241 0.1567783559748331
Ar 1.538657867808716 -0.1631696878568392 2.097018353447123
Ar -0.0347634953176611 0.9343770717570823 2.123001114816262
Ar -0.237515240688791 -1.155825469306849 -0.6520096906997243
Ar 1.365764609092456 -0.3554401644838237 -0.8010309183442718
Ar 0.2741284281341311 -0.2178684628362908 -0.9462117436608077
Ar 0.7304515805555332 -1.180333322324626 -1.168695743959009
Ar 2.258573171659667 -0.004622536938705861 -0.2528333806208403
Ar -0.4145878850735765 1.524227467782318 1.268760807763306