38
algorithm=ase_ga size=38 seed=1 index=0 energy=-136.2378848997056 step=1
Ar 0.06572628022897051 -0.8399908178835334 0.3913310476603231
Ar 0.4304625566083581 -1.629764412431169 -1.277435682205618
Ar 0.9391958966372855 0.5731918321733462 -1.738630718698841
Ar 0.7735535565402364 1.663126218364949 -0.166431764763091
Ar -1.579470656666307 -1.083499625847844 -0.8482830832436647
Ar 1.196317124294566 1.48864891506547 -1.201917569883356
Ar 1.189838746234577 -1.206485068051186 -0.5679852596984925
Ar 1.79385734147839 0.5499930167033874 -1.016186323162552
Ar -0.7965551233258606 -0.1575746412141806 -1.799114861241637
Ar -0.04873591865909019 0.4921556843647317 -2.220463925355127
Ar 0.0371354132792907 0.1925922682488909 -1.179746735778816
Ar -0.697114209649158 -2.675634573389562 2.28373508401084
Ar 3.227994098585403 -2.948381218672148 2.614777436889495
Ar -0.2021702769409329 1.171869978458016 -0.3578635275333925
Ar 0.3086973255892075 -0.6247987512330384 -1.812209531473166
Ar 0.1284509306209539 1.256881086312452 -1.394050834431768
Ar -1.493681576936985 1.193050633720745 0.8309076333034602
Ar 1.053580158549102 -0.2549194647451863 -1.067434609931521
Ar -0.5708466005364941 -1.150516919962599 -1.367299191143969
Ar -0.675178340971625 -1.331416986444613 -0.2839404157752715
Ar 0.5830092940637698 0.7594765343995402 0.4812304593705106
Ar -1.912326803899581 0.901982161821491 1.838029190188317
Ar 0.1771827106017617 -0.746997227079567 -0.6822394919266641
Ar -0.8392408667560995 -0.2933489899963405 -0.7036210773662287
Ar -0.9065883042896102 1.609784079582069 1.643811375881101
Ar 0.7734213671879755 0.671760374800593 -0.592243842094702
Ar -0.9716600328890057 -0.5021851389679708 0.3756311731719999
Ar -1.76101935490364 0.1472885440515729 0.8881192226400217
Ar -0.1786874862493514 0.06941265673736689 0.9417078079461964
Ar 0.9341082679460655 -0.2519343647265727 0.01128983771385251
Ar 0.3239628397510372 -1.748948418319289 -0.170427127879977
Ar -1.06849909125962 0.5358316137115976 0.03992792824909029
Ar -0.8862821596114069 0.7366079295163087 -1.099087407170996
Ar -0.4138364094050619 1.145224451788773 0.7160335448364704
Ar -0.06947435046029188 0.1297487200065621 -0.1246934358330726
Ar 2.136825288595704 0.949481156836215 2.970262083423624
Ar 1.31823101566681 -1.105544525743383 -1.690900482039537
Ar -0.9112639201682836 0.5435226736106765 1.531908272153341
38
algorithm=ase_ga size=38 seed=1 index=1 energy=-150.6311959569673 step=2
Ar -0.659877550559522 0.2676316858012563 -1.304724313127044
Ar -1.270136855405174 0.4055817432520921 1.51303813215962
Ar -0.2386405473368141 1.888306192281157 1.020311695580663
Ar -0.8345761652952487 0.7040568181401814 -0.2498967152405473
Ar -1.31400868612351 1.566515638750227 1.316952296543317
Ar -0.9365539220403278 -1.128082751128036 0.1155865122068356
Ar 0.9032094317097042 -1.17629428169408 0.5116436904769883
Ar 0.1553348558325755 -1.239804800077701 -0.3464718451919209
Ar -1.008849934387816 1.716927527459084 0.1842768200268743
Ar 0.03492601825332653 0.3224813448014087 0.3331768002432466
Ar 0.7675710988729568 1.372814417134761 -0.8565947005655052
Ar 0.05033265804651389 1.365236919812098 0.04271910794887302
Ar 0.9926019150786191 0.7296405116992449 0.06004760566334224
Ar 2.87288767689948 -2.612887931881744 -2.487133417102012
Ar 0.3259625096146534 0.6855239176229247 -1.703714094664251
Ar -0.3685973207387818 1.36472746696404 -1.012157429308381
Ar 0.8244784964316679 -0.1066554017749415 0.9142922345814392
Ar -0.5672111411576655 -2.06416596814007 -0.3057209688656941
Ar -0.4586275399205606 -0.3096807766342925 -0.3900129303957519
Ar 0.07984537121807068 -1.852691384596651 -1.244881033464542
Ar -0.3951447989202313 1.07199584033304 1.837614178904501
Ar -0.2116918715882023 0.04079474236015598 1.361678485923732
Ar 0.2453456027291516 -0.4616061820305771 -1.201488318500174
Ar 0.4400440886412734 0.9764603541606947 1.072378209963539
Ar -0.04955798294276319 -0.6787084741319567 0.5380014807482757
Ar -0.6400610846905903 0.9208871705582453 0.8091525821272403
Ar 0.3064998535548132 -0.9814837866046712 1.490858920287319
Ar 0.7231036714453589 -0.3263093624027098 -0.192716168492324
Ar 3.14834082200823 -2.091337471530156 -1.532129892473553
Ar -1.125895132805125 -1.991528054273564 0.7513646128728286
Ar -1.664258967314261 0.82035385521505 0.5108949071804109
Ar -0.06684630558895745 -1.732861935044389 0.6571294256736734
Ar -0.9849854755125192 -0.08919438490897978 0.5509415079946808
Ar 0.1761974742216451 0.5047752342122823 -0.6690091809036101
Ar -0.807771622282049 -0.9786032453437477 1.229353705362922
Ar -0.7332570635778095 -1.148465498307386 -1.004331184853962
Ar 1.413552141431 -0.8745578324467376 1.453470177634175
Ar 1.162189572426617 0.2928370839049532 -1.015461654773345
38
algorithm=ase_ga size=38 seed=1 index=2 energy=-156.4696698554568 step=3
Ar -0.6796287071778446 0.1401934264954155 -0.7301946584755288
Ar 0.03908083960076477 0.2909656039710966 1.78301575908137
Ar -0.4459401219963999 -0.9749812023820369 -0.9398739887377061
Ar -0.03344156831720893 -0.2460876222094623 0.8248997440466296
Ar -1.036973567691578 -0.5079908985255402 1.082720055752977
Ar -0.8489635386665784 0.3158944192674476 0.3484523187941721
Ar -1.720158145919338 -1.167524409027174 -0.2900230814377017
Ar -1.863384399143538 -0.004605497369602607 1.627433081823061
Ar -0.8152570075253226 -0.6813534460804825 0.03784071019957044
Ar 1.145192709188385 0.4037079858853135 -0.5972624917624978
Ar 0.7887592400460892 1.550623591127853 1.033037427931158
Ar -1.839792659842371 0.5434719634561143 0.6759405108660052
Ar -0.70737641236925 -1.733145648615147 -0.1753991735094944
Ar -0.08153384092907533 1.929443801501428 0.4302696746224233
Ar -1.678747930024442 -0.06321709862320198 -0.2676548438121476
Ar -0.8888611782573471 -0.3232903641601644 2.12685533432544
Ar -1.041916105674757 1.361394480886231 0.6686058511600668
Ar 1.105095352299909 1.458753305149739 -0.9973491251283396
Ar -0.03847997701068255 0.8653098130167853 0.8117586139246347
Ar -0.9443792716866243 0.5432609703731187 1.399834759938399
Ar -0.8717692883468549 -1.411761340624162 1.712905310224978
Ar -1.48588266459083 0.9961907425343248 -0.2977452322319216
Ar 0.3631375780044445 -0.2635796141079605 -1.043148505795667
Ar -2.010474058924003 -0.5664546293497131 0.6252366078237476
Ar 0.2494153566103724 -0.8636126415166353 -0.08707047213530948
Ar -1.412400711118975 -0.5586818635538336 -1.194150204343959
Ar 0.2049533710535271 0.8189207829488142 -1.028716480220848
Ar -0.8349621846164407 1.150810659863101 -1.20412390961581
Ar -0.2811627542633219 -1.309569940762737 0.7801119117839456
Ar 0.1008943220257471 1.895254903308072 -0.7306588098439006
Ar -1.270071114132976 -1.676811724749504 -1.152369972940574
Ar -0.4239064958733472 1.119602330877206 -0.2004855341023915
Ar 0.6496033056282696 1.218071774003719 -0.0200307812695236
Ar -1.360041753760153 -1.476172005611013 0.6932576308870516
Ar 0.18476174319106 0.2331141032894605 -0.08833140873505861
Ar -1.89666599059484 -1.088902498989109 1.590465792603558
Ar -2.30044837697154 -1.2215791135716 -1.227754561618637
Ar 0.03523363972619422 -0.8163384537935761 1.742192732888399
38
algorithm=ase_ga size=38 seed=1 index=3 energy=-141.9013964007812 step=4
Ar -1.055966657593166 -1.365481208154347 -1.21408602482153
Ar 1.020650445421137 0.4667852028121456 0.1508759971933833
Ar 0.2251178274345982 1.071215750739759 -0.3184971460850538
Ar -1.17032525722966 -0.6029467608752023 1.133915552723758
Ar 0.02278906932950779 0.4894184589058164 0.6191120914584806
Ar -0.1613264861026042 -0.04795842766143523 -1.438623491650086
Ar -0.969522242911105 0.4897649627973693 1.074427793425169
Ar -0.9814131356370299 -1.121896769122828 -0.1157869214015531
Ar 0.09800892887613251 1.041776746214856 -1.424080576136209
Ar -0.7166733251302781 0.5624327965574897 -2.12056325121987
Ar -0.7108763515964246 -1.559425632438532 0.8543416249766598
Ar -1.67491709669066 0.2697089886955581 -1.603864684924113
Ar -1.580256029468069 1.626605495632704 -0.2732537803567648
Ar -1.647613447673369 1.067409557872752 -2.375213410344712
Ar 0.6352829295488274 -0.5382309992392939 -0.1132194020433557
Ar 0.7215818783049693 0.2583257518683785 -0.8897247473364198
Ar -0.2395769152695976 0.09448568575149195 -0.3632212551390602
Ar -0.1447267677307914 -0.9094413563185528 -0.7875364449746388
Ar -0.2707577084697343 -0.5609951878741718 0.4988313486912834
Ar -1.766155296863051 1.320982698912658 -1.30172904682828
Ar 0.09845101669695619 -1.505734692974215 0.1022923588753358
Ar -0.1916225196458819 -0.186761733897413 1.51122883589677
Ar -0.9932081946627556 -0.5262641455902223 -1.962622189505674
Ar -3.124206541618106 2.511083944457621 3.209338734528286
Ar -1.764427271460526 2.123617350762391 -2.0977610492782
Ar -1.193733574729538 -0.08460486212075792 0.173103195911144
Ar 0.7552813481961291 -0.2605483880283305 0.9418606402276827
Ar -0.8161042491576717 0.9293308609674829 0.04851842033207797
Ar -0.8222193393916958 1.596118733615423 -1.771000747272756
Ar -1.769691581062909 0.541947166583072 -0.5043387118139602
Ar -0.8515719200153835 0.7331753227489501 -1.033294528183406
Ar -1.360500450459558 2.342037209870893 -1.099858014640201
Ar 2.457350158155892 3.232434764991121 1.750806927315663
Ar -0.5725680360743304 -1.159282339314364 1.885400552120078
Ar 0.2828673311827132 -1.21245644886423 1.180602107620429
Ar -0.5511039389285493 1.720166409142869 -0.7084187562247566
Ar -1.10316682918367 -0.3192983244725348 -0.8814710650003966
Ar 3.027544424431851 2.576310206408486 2.460947837376853
38
algorithm=ase_ga size=38 seed=1 index=4 energy=-130.8214488508923 step=5
Ar -2.010599241055264 -1.411406906883079 0.8248303235212495
Ar -1.015159638778008 -1.011766470691208 0.5641109447702509
Ar -0.3244375318936547 2.144389473534485 -0.1163535741790083
Ar 0.435743259498628 0.1684756220407537 -0.6147417434975859
Ar -0.9715476841926279 1.364408920832235 -0.6595561573568031
Ar -1.922342662147576 -0.3139880004871021 0.5965407837550519
Ar -1.155154568055099 1.227013860217509 -1.747575161159372
Ar 1.081703627550936 0.9480524283650361 -0.07341910746351821
Ar 0.8158708717754 2.04721282051462 -0.3274857595223466
Ar -0.7111275058737162 -1.265581075952454 -1.569241551649462
Ar 0.02228640863182771 -1.991730931583286 -1.873451253335067
Ar -1.672498297971991 -1.368791058852902 -2.073061533556861
Ar 1.057663561727737 0.8549434189744534 1.045814341939123
Ar -1.577430512398818 0.6712899073773465 0.01221387009180549
Ar -1.93553827173605 -1.16153930074078 -0.2440542210767246
Ar 0.2261808043251904 -1.220063999448659 -1.048131975810218
Ar -0.5565182250874966 0.4236218619686897 -0.3085299201428028
Ar -1.555832076640141 -0.7101385340926354 -1.198931666058517
Ar -1.332779303804125 -2.000427644267119 0.1143250559353702
Ar -1.260568071048743 -0.3413387891805744 -0.2449702204060816
Ar 0.3674818159720215 1.570667576822106 0.555805869024475
Ar -0.6620352892215942 1.211878244298278 0.4103705739304787
Ar 0.9742532432090387 -0.4611714072585187 -1.305830201649688
Ar 0.04837682297159787 -0.5313856034414995 -1.943532436065566
Ar -0.8609607450507474 0.1112809840773817 0.6856613335808867
Ar -0.2782269655806378 0.6580128248238371 -1.346875406716579
Ar 0.2039345372119293 0.4769842335314578 0.4382258853154452
Ar -1.517563956816652 -1.827146765734982 -1.027401951242033
Ar -0.6635539236880074 -1.474911418859838 -2.628317310235193
Ar 1.602146457997646 -1.481157753284855 3.369960841788216
Ar 0.8354895334619948 -1.29185703538499 -2.017539119546654
Ar 2.475152772811336 -1.254677437395512 2.695198077882927
Ar -1.335843867455118 0.3754174622483817 -1.071356981256375
Ar 1.426491461515725 -1.152318073397109 2.312873642134505
Ar -1.044994426078788 -2.269862026675814 -1.930049857871708
Ar 0.116166183270468 1.221382019352414 -0.4785236684184706
Ar -0.7505841426309455 -1.273236581954546 -0.4761157537645699
Ar -0.4824594920292314 -0.3652616742815434 -1.017141379703167
38
algorithm=ase_ga size=38 seed=1 index=5 energy=-152.404993287399 step=6
Ar -0.4094176086232352 -0.4061474921797503 0.5905014869460722
Ar -1.061749576122847 0.01511380566285823 -2.026156229154555
Ar -0.6278493969096682 -2.113347234331613 -0.003260097945991085
Ar 1.080093819169272 0.6910440782112885 -1.347779682921517
Ar -0.4077462802127401 -1.456629391784717 0.9654857635258537
Ar 0.3946351637273937 0.3960061930901294 0.8012852059320372
Ar 0.5112791663065077 -0.3247185163277985 0.002947401316767978
Ar -0.9450419974741708 -1.396782068568245 -1.824430863772415
Ar -0.9128321267206352 1.220210354323445 -0.4556158408903018
Ar -1.39547231091619 -1.721939364768784 -0.7950479993859556
Ar 1.226843976001369 -1.110501849971807 0.08358904422885061
Ar 1.281463140694113 1.060936257689811 0.6651455517514241
Ar 0.8499356699556146 0.6677690876279799 -0.2405271336496202
Ar -2.271401281885708 1.307027690978369 2.697157339309051
Ar 0.590855482076424 -0.9841948090490709 -0.8803055236721334
Ar -0.7929012852143383 1.211015543189446 -1.616445984893225
Ar 0.565695097198171 -0.7624218135299815 0.9744684939642811
Ar -1.245825995230226 -0.01842181496098886 -0.1066905692152
Ar 1.343316510343176 -0.2124696995738884 -0.7035151047416295
Ar -1.084505894542908 -1.127273275533326 0.09005601814592974
Ar 0.08791409255916036 1.1198628533738 -0.9222681249581706
Ar 0.1883951553695454 1.393717172757432 0.2194504827548292
Ar -0.2709835706341647 -0.5789145757187499 -1.563567989604029
Ar 0.2958168320265847 -1.449353255331136 -1.847933472892424
Ar -1.291142562790951 -0.6513766904503073 -1.075205418507308
Ar 0.6812441756794586 -1.847939598144499 0.8135606996395992
Ar -0.3955830307405884 -0.5693850602962417 -0.4949824320273997
Ar -0.2433913315268924 0.446247701330925 -0.08278282999912953
Ar 1.932460603247309 0.5796035998465959 -0.1841534508327954
Ar 0.3136644554957396 0.0716447345533885 -0.948858757665569
Ar 0.8170143081741917 -0.3742507750943159 -1.781098918146061
Ar 2.177926043452543 -0.5239537844145827 -0.0600310639921002
Ar -0.3358578523802982 -1.55029787429846 -0.9293278323942405
Ar 1.383322777198774 -0.05329655988571397 0.5399773961723744
Ar -0.001058209023626434 0.4668939110350688 -1.886233192892925
Ar -2.51503800875207 2.381262697227966 2.912984468276178
Ar 0.1253371756490461 -1.322821819279075 0.04937362962258428
Ar -0.7365271186742717 0.3043393627541525 -1.038018419459925
38
algorithm=ase_ga size=38 seed=1 index=6 energy=-147.9408295979221 step=7
Ar -1.636348999362299 1.688457518409203 0.01388070943045281
Ar -0.3453349729315385 0.694362616974939 0.9581161781756488
Ar 2.633233356011347 2.118914195981167 1.997467354414094
Ar 0.6822648430259215 -0.4372796911577395 -1.374211768492685
Ar -0.3117452674301778 1.012168565733657 -1.746141333440521
Ar -2.117334206757559 -0.1743305612848121 -0.9817510627809829
Ar 0.2042442005537639 1.562351828234538 0.4512527264804294
Ar -0.509635262297052 0.5567513838736051 -0.8138089087810061
Ar 0.1804843865873 0.5678265864209331 -0.008978933377236495
Ar 2.993062471355234 1.14255686409297 2.415234057516608
Ar -0.9047882562998188 -0.9296226143093526 0.1514930277787731
Ar -0.5382898773815219 -1.231656744065089 -0.8975137351864644
Ar -1.479596139357185 0.7539333440082319 0.6778278281526414
Ar 0.09715262270220748 -1.315599265773998 0.1187423041436335
Ar 1.00567772324735 -0.7392214804937057 0.4849268975560299
Ar -1.793568217967897 -0.2621848751259844 0.1192657873987239
Ar 0.06270920707044904 1.493326624606665 -0.6732423971676713
Ar -0.8679172954510657 1.718314185462163 0.9147258764495396
Ar -1.066438318820371 -0.2514248535912613 1.078919317307457
Ar -0.783296912977995 0.1334989610652159 0.1362366213165258
Ar -1.558357838780441 0.656828624898117 -0.45739931624104
Ar 1.039017911413914 -0.01457914606705921 -0.3378286894458787
Ar 0.0002954128076925139 -0.3816902241211395 -0.4825980904836951
Ar -1.693054311671811 -1.182687444283395 -0.6205771554465521
Ar -1.031342495740799 1.499545689312553 -0.9707501694294443
Ar -0.7075936466686484 1.169661727446088 0.02269197903437119
Ar -1.372147556906667 -0.7539916304133036 -1.665840738159542
Ar -0.6127314315799713 2.21707447744495 -0.1175372644636341
Ar -1.308969783259536 0.4267915108168555 -1.530197997951338
Ar 0.908419890979723 -1.102546045197694 -0.5584059115036696
Ar 1.055078611069721 1.132317704269375 -0.2190415285494889
Ar 0.9038411002664651 0.3679175193196774 0.7394245773453392
Ar 0.5223798332056335 0.5928325799313747 -1.086145421072607
Ar 2.97405414477836 2.058674384246121 3.068892271584403
Ar 0.01191473136748081 -0.3361716621978439 0.6503787062047917
Ar -0.36980261710644 -0.209700237114421 -1.557777000002165
Ar -1.084985083200523 -0.3190088882115818 -0.7441191163273534
Ar -2.975234931148875 -1.829374785324895 3.118505248913485
38
algorithm=ase_ga size=38 seed=1 index=7 energy=-152.5027156740888 step=8
Ar -1.38276865381436 1.157333900156372 -0.1761922842876217
Ar -1.398158027408446 0.2626860873605583 -0.7991877042525649
Ar -0.1705063478334182 -1.107842091381857 -0.972001132520961
Ar 0.3690339257219166 1.251340154668545 0.9464449194605566
Ar 0.2683137287704817 -0.9184893416324353 0.8230537301914529
Ar -0.5920469353293775 1.753965960920921 1.174623789332091
Ar -1.630157138385117 1.232653569535205 -1.263917071857646
Ar 0.3439577716224875 -2.013955634670007 0.642011903269002
Ar -0.5802375715578655 0.3897560522951593 -0.0778192432967993
Ar -0.5801763799724172 1.071079725242491 -0.9251620175689332
Ar -0.1917930868366541 0.9817764765181303 1.893847862487983
Ar 1.077564168263069 -0.3694693710389167 1.25428467597345
Ar -0.6796006461715831 -0.4051421233720263 0.7153632399923848
Ar 1.996562117837601 -0.4320571114111433 0.6200817495583782
Ar 1.033473867255418 -0.3742622887154884 0.1450163880944059
Ar 1.322611653652665 0.5553346993158249 0.6802936116958096
Ar -0.350963704701824 1.406402945054533 0.1428751521887903
Ar 1.294290580649093 -1.316871501999659 0.6745623675543859
Ar -0.467064046677344 -1.40900316462278 0.1654192596323874
Ar 0.7617319973070799 -0.5111924872290782 -0.9184774950855968
Ar -0.2950803717330887 -0.003101768164890502 -1.053244954804106
Ar -1.085615955576745 -1.635838330364627 -0.741353248452837
Ar 0.5988563481792325 -1.347052874512902 -0.1659128056848235
Ar -1.553277961439862 1.26492368579831 0.8921964082115463
Ar -0.7848330495657804 1.538313140004946 -1.918254140938794
Ar -0.04658206931850509 -2.127963939205415 -0.5611512403188356
Ar -0.6482135906299188 0.667889356298638 0.960497814311838
Ar 0.8235817313065793 -1.598759439348922 -1.188005439429936
Ar -1.538730158120406 0.2071957238249116 0.3714885581836818
Ar 0.8094321466843972 0.5835741579061666 1.676401854647163
Ar -1.108905292982172 -0.6552023199310686 -1.399384413448973
Ar 0.2810512112263228 0.2179743527944718 0.6427922442317507
Ar -1.041832559381306 -0.613488445161173 -0.3058856476127124
Ar 1.625219175499161 -1.096436987169542 -0.4166422465149541
Ar -1.164699549888978 2.135472166650595 0.2898367507417837
Ar -0.9805953172135521 0.4461949800710913 -1.789525517293488
Ar 0.009331362263687215 -0.4726107758917627 -0.1304177329734876
Ar -0.05153034542425217 -0.1237236315517725 1.598864949613342
38
algorithm=ase_ga size=38 seed=1 index=8 energy=-152.183268759237 step=9
Ar -0.06724977630045127 -1.042056368045714 -0.9681621515326529
Ar -1.501874244815887 0.2830674681849665 0.8499021103411866
Ar 0.3876201930069803 -1.428757724324179 0.03584165353019035
Ar -0.6427539704388667 -0.03231400773920175 -0.7275805158807723
Ar 2.717873306762939 0.2792556938691007 -3.094900406518089
Ar -0.528662932138863 2.164825080308508 -0.8965902960216909
Ar 0.426042559389991 1.600914779968423 -0.525646055029041
Ar -1.603057823494648 0.5035587098696075 -0.9641383376164172
Ar -0.01970114873880537 -0.8024057696212655 0.8444103997116752
Ar 1.038302697251445 0.2975123155976323 -0.1619306537119128
Ar -1.213813284879953 -0.9263041321766972 -1.00008449213975
Ar 0.804904220044406 -1.456818135498491 1.120874147244582
Ar 1.025338640845823 -0.6035191796230932 0.4813655379162049
Ar 1.4254474995024 0.3500601387749172 0.889666833512223
Ar 1.074830207972392 -0.8172727138031081 -0.6220936826196143
Ar -2.311033389749539 0.9608938097096121 1.142427497013422
Ar -0.4603532621113884 -1.783512572991971 0.6755921340480684
Ar -1.075018387711478 0.7434499273819293 -0.06778861463798776
Ar -0.5250184829912543 0.9131417083541552 0.8684995765423443
Ar 0.3568173038897386 0.246496177855851 0.75840869216111
Ar 1.397103284800515 1.292768436835502 0.07814932315170908
Ar -0.446903613724346 -1.974954014932019 -0.4654047852775169
Ar -0.6060523046720816 -0.04834474766853594 0.3932953973442144
Ar 0.2097532302590478 -0.3788855400050776 -0.169161395859414
Ar -1.485695029546883 1.613162936791644 -0.5230183996279352
Ar -2.135542933297928 0.7440643368362178 0.03476298476772256
Ar -1.281162010434181 0.9706122091780705 1.65912064821199
Ar -1.146209410141326 -0.8107417073570288 0.9260092383271542
Ar 0.4422278157545314 1.338664941669705 0.5913834520341774
Ar 1.715167430094405 -0.7077729987441287 1.313625002164058
Ar -0.5098044174215649 1.654665522304983 0.06645536264878453
Ar -0.683080691034214 -1.000792507740543 -0.05640593767477777
Ar 0.6910951135634237 -0.3913105942246916 1.560520983428291
Ar -1.545576418483708 -0.2664746924560555 -0.1187281431283841
Ar -0.00169558721816444 0.6818188246621715 -0.1585891334279533
Ar -1.466644753640627 1.451908719192583 0.6353466199363111
Ar -0.5150758114417628 -0.01049756439210488 1.468258930079253
Ar -0.5945465207866991 1.073755438837197 -0.979784048044829
38
algorithm=ase_ga size=38 seed=1 index=9 energy=-140.6146256551764 step=10
Ar -0.2848140678620952 0.1832538271614839 0.5359456607951285
Ar -1.394475300614835 1.436717303008116 0.912983897491515
Ar 0.05062142910057505 1.842665566204418 -0.4270112919737649
Ar -1.308429620684115 -2.427278290698636 -1.763240645264147
Ar 1.218696813388644 1.208252431825334 -0.1203150999135464
Ar 1.777967479886599 0.5194728368502209 0.5805422931632849
Ar 0.1847322466202882 -0.5120634242870856 1.208445471640502
Ar -0.8040618765483107 1.031789184636423 0.08921471186794952
Ar 0.4958032772670238 0.5592814484751472 1.24776565688915
Ar -1.460602812186144 2.509121460026035 0.8688861172734857
Ar 0.8492445932230418 1.237553753596739 2.057300299299483
Ar 1.22941716608119 -0.3107152842403624 1.089217376046181
Ar -0.8049382266718182 1.980641181158238 1.648674724076177
Ar -0.4466955071774844 0.2015533594866713 1.758551472968714
Ar -1.268813035491724 0.9697028649894083 1.895617924721801
Ar -0.9077023688097978 1.549908675515886 -0.8831030736459095
Ar 1.192683505570466 1.353837483547611 0.9886999944475673
Ar -1.535308209372697 1.877852284097823 -0.04744106904951433
Ar -2.223922999957999 0.8603624366725782 1.288914329906487
Ar -2.52024056025154 -1.689622964490801 -2.912718180043934
Ar -0.4521928374451841 1.061711959815786 1.145723091789402
Ar 0.6069059470314226 -0.003614794772763085 2.143170226648769
Ar 1.553488839944849 0.5261501404183712 1.675082823851351
Ar -2.375609318062347 1.809959674792832 0.6898275405966524
Ar -0.2169766168603654 1.185101768717762 2.194296208789235
Ar -0.2342437692013897 -0.7873021733560076 2.189063650473797
Ar -1.923362742093212 0.8626694048040431 0.1740359746031659
Ar -1.935122927746812 1.879887869469812 1.731897076832963
Ar -0.5177681786826787 1.990536425463355 0.546411282141589
Ar -2.153579155616135 -1.697827554375625 -1.854344471057614
Ar 0.2636194040575888 1.833231051309642 1.339751680227567
Ar 0.2642359392756254 1.190083900079028 0.3952068365356951
Ar -0.9199617736628779 -0.6476384252519291 1.269026568444738
Ar -1.27516024764447 0.3590204039102306 0.956190248597887
Ar -0.7725531809126079 2.582959751218542 -0.3576457663857667
Ar -2.160529662223134 -2.647178554171292 -2.456229902963228
Ar -1.428901574546489 -1.830354639863375 -2.703364143985863
Ar 0.7736301331829686 0.2322295899502779 0.2347201746277024
38
algorithm=ase_ga size=38 seed=1 index=10 energy=-152.6480241781497 step=11
Ar 2.717873306762939 0.2792556938691007 -3.094900406518089
Ar -0.5714727439892743 2.17186758859224 -0.8621935739648665
Ar 0.4252973736344114 1.657865036493521 -0.5636739031269624
Ar 0.8235318390711081 -0.2735366912370458 0.3210598559897133
Ar 1.177659975549906 0.6130021456203557 0.813085825967147
Ar -2.094986180295365 0.5929581402575161 1.17098882952663
Ar -0.7077220202004784 0.528147409162144 0.02539534721364843
Ar -0.4376834659367678 1.282939014770128 1.111543236096458
Ar 0.06353442317470184 0.3354311653291918 0.7953555927929448
Ar 1.460320824438577 0.3587239945042187 -0.2574506305662774
Ar -1.401290448057485 1.439142160767591 -0.5361550716342696
Ar -1.012299931550304 0.3746707016632448 1.104722349046452
Ar 0.4780854346904528 1.373467302071852 0.5131071980995013
Ar 1.834287575043091 -0.2741386252956656 0.6858403853448576
Ar -0.4861586813320147 1.591509475879068 0.06574974963209176
Ar 0.8355482546591327 -0.2748199208294531 1.398465587466539
Ar 0.3478911647232431 0.5921655914087227 -0.2410904975719804
Ar -1.416915435172334 1.20912171704461 0.5336484913902491
Ar -0.2949326265633372 -0.2723609720955702 1.632332665111059
Ar -0.4440598194841743 1.085021852826933 -0.9126712569569337
Ar -1.376152449501753 0.3823775615723797 -0.8306253427604904
Ar -0.1694347117673483 -1.027135522547841 -0.9286538182351984
Ar 0.1182240974420407 -0.923939910393679 0.8684330196475658
Ar 0.3260182181659759 -1.972084690065222 0.6395845449447199
Ar -0.9281810775206092 -0.6069558583509258 0.7022575216158967
Ar 1.19040699955758 -1.194263396383213 0.7730577919220528
Ar 0.6872728525903075 -0.3063432280575319 -0.7623441575240922
Ar -0.3306366095027328 0.03976194683171866 -0.965960463223712
Ar -1.134822182446697 -1.54812202383113 -0.8830564047428628
Ar 0.5491193763479433 -1.227405400324873 -0.1250598584694675
Ar -0.5170082672806294 -1.421995833271371 0.06542258143184283
Ar 0.9349840383183575 -1.301761061636986 -1.141350149750845
Ar -1.688692058765859 0.1385463257780545 0.2402575676321784
Ar -1.082278072140681 -0.5600416755641652 -1.473052071174328
Ar -1.123873952706622 -0.5742106015001857 -0.382605253562643
Ar 1.558474001230575 -0.8053333567117527 -0.27654533758621
Ar -0.8642272373702895 0.52232633121924 -1.795069339910409
Ar -0.1503061460286309 -0.3873981524129946 -0.01894506893002629
38
algorithm=ase_ga size=38 seed=1 index=11 energy=-159.0912066278737 step=12
Ar -1.577922954370833 0.217027908679452 -1.081426261180036
Ar -1.008235493688749 -1.735385787491189 -0.1978870466540878
Ar 1.058901635292748 0.1470393696153456 -0.614981122809289
Ar -0.8188393945336842 -0.5190044591882181 -1.575122009748864
Ar -0.9734996677839335 0.9629721724104838 -0.4286895710976162
Ar -0.977359713020484 -1.604063889591544 -1.362095534035738
Ar 0.835975583077101 -0.9681318079945787 -0.7884284546081235
Ar -0.5796055764593394 0.5970246386807381 -1.448306452794858
Ar -0.7424097518696624 -0.7278729006375758 0.2687813315543839
Ar 0.1062543554480881 0.6831709001757171 -0.5659275338386096
Ar 0.2034456600991321 -0.193013034906609 -1.24091002200288
Ar 0.07640575046447701 -1.192054730444569 -1.712575428976062
Ar -1.418356844669119 -0.832937881757234 -0.6720243551123691
Ar 0.2306035990818181 -0.3801630998917497 -0.1062532602880768
Ar -0.2933083419394103 -1.084554073245522 -0.7045696891177103
Ar -0.660888316733821 -0.07640770881968667 -0.6102302033443083
Ar -0.4517192877352508 0.3750093165190584 0.3187362710400992
Ar -1.375881404846165 0.9398416092797438 0.6170196897355574
Ar 0.9973959362609642 1.250296952846621 -0.2792564620859378
Ar 1.728471112733156 0.5612348729817229 0.1647196241404339
Ar 0.04711961523032508 -0.3023596001691112 0.989604869050599
Ar 0.487604189822309 0.596343246024354 1.448080926451098
Ar -0.7940205458096044 1.879041982509678 0.7280075158738988
Ar 1.055851284103782 1.366664724173276 1.962381940215012
Ar 1.244595337100938 -0.4769596235769545 0.2852423247901502
Ar -0.800472846487933 1.791588084845029 1.832473601999654
Ar -1.356733654284831 0.7911387767814348 1.795717510032347
Ar 1.119047392184939 1.294182866079933 0.8419155550530831
Ar -0.4789330828024582 0.9426751781552679 1.209120767385351
Ar 1.4454099395782 0.214290675459368 1.156056294946353
Ar -0.03310950499368644 1.131429176028315 2.238056119348883
Ar -0.4068688623845818 0.1288888951460173 1.932995382781074
Ar -1.755275969977778 1.713256865647651 1.292686989542528
Ar 0.2202299962579895 1.75138853794681 1.333703052000223
Ar 0.06269060267987958 1.343514808575868 0.3209924137672523
Ar -1.083990252777375 -0.03519280558134591 1.083570422701355
Ar -1.512873650310274 0.0358799829340394 0.03617715289598461
Ar 0.6500019001204076 0.4414834129925541 0.3932001085185033
38
algorithm=ase_ga size=38 seed=1 index=12 energy=-155.478574996483 step=13
Ar 0.02249330746670993 -0.3684160031776491 0.6371302480452141
Ar -0.7329746702702221 0.3430258512627475 0.2731592568155041
Ar -1.432769934885926 -1.14134526810843 -0.7287802358216225
Ar -1.547802244923058 -0.1295996387366257 1.781072240322484
Ar -1.657279489231691 0.4944756096994276 0.8261360685667742
Ar -0.746604324243487 -1.866784297331749 -0.03561158119210493
Ar -1.647603083810775 -0.2446991472391068 -0.04496714619700136
Ar -1.069705219237241 -0.4435875792099908 0.8593090266793414
Ar -0.6827827750275882 0.4420312181346205 1.361949933983788
Ar -0.5354570887732716 -0.6277930711278115 1.764345619417542
Ar -1.559191335589296 0.8370136493072148 -0.2394797575186095
Ar -2.153461881431406 -0.5156263955231452 0.9230016356241812
Ar -0.8217447116210643 -0.6224703088167245 -1.519636494048751
Ar -0.4705723356485435 -1.330520020743996 0.8746144125361222
Ar -1.551160166736493 -1.273001041041294 0.3723221508241651
Ar -1.444240663009593 -1.233244172713912 1.487196834427631
Ar -1.820171077591848 -0.1794326782506325 -1.139234121793198
Ar 0.2974715881852529 0.0758093335115711 1.689971674426603
Ar -0.8563874131542616 0.1202817260404467 -0.7488268575279529
Ar -0.7505411720481369 1.339489639762857 0.6129805697037217
Ar 1.152640540997843 -1.168638150336147 0.615840503703483
Ar 0.2347899375680671 -1.296031274577661 -0.002903680662423279
Ar 0.1457896886726703 0.3647329273627927 -0.279362194053927
Ar 0.5664227857477543 1.210926191723819 -0.8526897343965137
Ar 0.2593533236602016 1.530134240349468 0.134206635163833