38
algorithm=ase_ga size=38 seed=0 index=0 energy=-160.4492755533338 step=1
Ar -1.036370072872314 0.2151157142356723 -0.1223588693020958
Ar 0.1524447161011578 -0.2329397199110381 1.096511109545879
Ar -0.09865049258628775 1.529991583373683 0.6515548604819541
Ar -0.1963940223820844 0.8619402658921689 -0.1805225045026627
Ar 0.6723785163245416 1.48634063153161 -0.1864589229750787
Ar -1.367669154866489 -1.163736945069806 1.351454160932986
Ar 0.9697785802981564 1.510788958499327 0.9452366945450104
Ar 0.5860361759662889 0.6037815617051553 0.5016395882763774
Ar -0.6492901856523399 0.6007477108143232 -1.84643697090199
Ar 0.9930430623147751 -0.3930075668299863 0.212110407391478
Ar -1.010070779745817 0.9766236874631817 -0.889993172362735
Ar -0.3942442435834452 -2.252195799682792 0.08862785966292745
Ar 0.2624874485092946 0.7981879361917629 1.511238432041918
Ar -0.03961293348022241 -0.1538918593624607 0.06337249718323631
Ar 0.8163820205281229 -1.077802457158253 1.033287484278506
Ar -0.07478773900854942 -1.617881460397842 -0.7246311244504758
Ar -0.8744826789220486 -0.5112674527067693 0.6480825657748495
Ar -0.6728711492330669 1.736223206615984 -1.598402850431542
Ar -1.176212216176381 -1.481302276496322 0.2628787518843248
Ar -1.307403062947433 -0.1095735866305865 -1.142200606834848
Ar -0.7788172082755122 -2.080280556628203 1.102334251672849
Ar -1.756097574541056 -0.5826205635595328 -0.1220863840062772
Ar 0.852277530590956 -1.497169284765251 -0.03286881230016667
Ar -1.132867079300836 1.277338088109757 0.1780228776940674
Ar 1.186327660331057 0.05128075545645104 1.234178299377055
Ar -0.3905426533192608 -0.8150769059538622 -1.493798511218105
Ar -0.7307048291339074 -0.7826303861358481 -0.4623828398466189
Ar -0.2593883022999304 -1.1741058134544 1.409767228249718
Ar -0.0978555159037961 -1.19120200238558 0.3351349565861405
Ar -0.7720580255406092 -0.1887512098458081 1.679105165655962
Ar -0.2677113049266561 0.1187102966228271 -0.9518854824540831
Ar 0.4547079352298954 -0.6844980685640689 -0.723835263363269
Ar 0.3212888297398596 -2.035316133928713 0.8927986441085579
Ar -1.978735798925264 0.5445740563814943 -0.5124210182976444
Ar 0.1322068667427953 1.123937294950963 -1.170602193127586
Ar -0.5527174044133979 0.5361125960643511 0.8061088671295249
Ar -0.3987064423779174 1.861834656772222 -0.4873260384192482
Ar 0.7281067692576613 0.3911938395185384 -0.5601986865211096
38
algorithm=ase_ga size=38 seed=0 index=1 energy=-162.3412376592731 step=2
Ar -0.8281546456742968 0.5437571632997311 -1.763083132191962
Ar -0.9220699665814946 -0.6934348171136795 -0.410163986786822
Ar -0.3062511579533199 -0.04090094980216948 -1.014114118232982
Ar -0.6802859013667328 -0.4027506487720125 0.7087832743384211
Ar -1.400748791463043 0.3803315651048387 -0.8244141992454422
Ar 1.050606997539717 -0.06381777777564682 0.224648884988949
Ar -1.364813919868268 -1.217882530830701 0.4580733469076222
Ar 0.3869225010448957 -0.655232247827271 0.9291953404753046
Ar 1.236777988779324 1.342622008510952 -1.457472442342387
Ar -1.479653310779083 0.1587899059210755 1.196820206694985
Ar -0.7854356615557438 0.9419738345910931 0.9182141790402711
Ar 0.3926659361087237 0.6433951766916295 -1.47454001826717
Ar -0.1110404069913104 1.14838513575306 -2.330199731717318
Ar 0.9540019972266386 1.031642555393753 0.4131039803001624
Ar -0.4339762196903181 1.039946855594032 -0.8709632058472234
Ar 0.6866679005482462 1.574190456681047 -0.5295974204740438
Ar -1.17708297338611 -0.4967821326646721 -1.477875655669126
Ar 0.7890311428662691 -0.309036468967002 -0.8794219493189708
Ar 0.8216788874850374 -1.141725250657123 -0.06390315006904336
Ar -0.6958588020813631 0.3905606611469871 -0.04019337069713579
Ar -1.656628573520583 -0.1755819168368939 0.1635416704201164
Ar -0.001629795705501082 -1.118953408855085 -0.8777588406621247
Ar 0.1125531902690659 0.369372392872691 0.6373625034423173
Ar -0.8921513529084554 1.653524227750817 -1.652342025104361
Ar -1.633927578502424 0.9030219880915001 0.2222798449959043
Ar -1.388347603297741 1.490818501765275 -0.6722668348694706
Ar 0.2323676705981167 1.229935313398338 1.264927957930557
Ar 1.411823794997281 0.6653967094857099 -0.5733090603398574
Ar -0.4100412086696402 2.079621180975201 -0.59054477070263
Ar 0.9244883142969216 0.2974491258593911 1.318128412617053
Ar -1.047822228443279 1.843839297341021 0.3176791891180698
Ar 0.3707028813800946 0.5545372508262316 -0.3888426494314033
Ar 1.415559430185517 0.247045353098245 -1.60014680916597
Ar 0.05575254230121289 -0.4032760797547706 -0.07529804996797258
Ar -0.3228077207494416 0.185625973500842 1.595914757856772
Ar -0.266887886288561 -1.365855854482512 0.247685320643948
Ar 0.1876481233910011 1.744325851486129 -1.469027349366769
Ar -0.1049766361427796 1.334422102322299 0.1722139391116953
38
algorithm=ase_ga size=38 seed=0 index=2 energy=-151.2220410187669 step=3
Ar 0.7326564772335077 -1.633143615763497 0.4841604956482316
Ar -0.8839279194798939 -0.4381879803390482 -0.2862978267300974
Ar -0.7195091630871037 0.5118201547929266 -0.8243214697779703
Ar -0.7909975010059871 0.5524666676270235 0.3033021007240931
Ar -1.32067787647885 -0.3577488886877825 -1.252866741935132
Ar 1.045675223932433 1.311412542868674 -0.7837815406594638
Ar 1.293395251374482 -1.319978490667096 -0.3826129278889752
Ar -2.385586429217975 -0.1969546138247808 -1.005873102211143
Ar -1.711717234117 0.6716742540798334 -1.330694942484923
Ar -1.873960385022516 -0.85293147202516 -0.2388388631181293
Ar -0.3536026087677562 -0.3965830385989154 0.7142800432554114
Ar 0.02202466463130857 0.0426658868880113 -0.1748085838972957
Ar 1.484354884556998 0.3199397515451183 -1.076930221514668
Ar 0.9959008918853747 1.430005463706708 0.3433951100420898
Ar 1.763604739326798 -0.312984667482167 -0.1984585362049252
Ar -1.05663313417818 -0.9165516837395971 1.424278553420463
Ar 0.0667280340278387 1.121787272527049 -0.207295927236916
Ar -1.925227389008486 -1.290077901607357 0.8213900185825624
Ar 0.4618766236158858 -2.037011605799584 -0.5249443616033785
Ar -2.910499960553696 3.32063663399304 3.164158880995613
Ar 1.95162044472314 0.9002176065433515 -0.2408622462807364
Ar -1.462608211207702 -0.2831809204469676 0.6283305738877532
Ar -1.047613354067622 -2.001694709320708 1.142729871146798
Ar -0.1939917939462302 -0.4578744213340583 -1.142766998482058
Ar -0.9454381062210894 -1.262581551875724 0.3569996215686737
Ar 1.636518250041854 -0.7666501441298487 -1.279607963939804
Ar 0.7625138262750419 -0.5130467316829727 0.4191345030263741
Ar -1.688751540166835 0.279012727604213 -0.3006933496199583
Ar 0.02678060461748428 -1.071403167068855 -0.1810828876720434
Ar 0.9985624570925929 0.8939231222475836 -1.872521805758293
Ar -0.2658754282296549 -2.104673800491213 0.2966448048896548
Ar 0.797080150095422 -0.4290077662569748 -0.6847307255966367
Ar 0.7648226823937925 -0.2413322027331007 -1.759940384773115
Ar 0.3633460359196254 0.5090581089931088 -1.074788059882444
Ar 0.2833450110682135 0.5442985020432053 0.7438412348546253
Ar -0.11112605396564 -1.372814203802259 1.103361493046852
Ar 0.5809937551158867 -1.267760527483366 -1.300740048342805
Ar 0.9870619717142385 0.4524288738737591 -0.09787376319776081
38
algorithm=ase_ga size=38 seed=0 index=3 energy=-154.6495045628628 step=4
Ar 0.3944203009174733 0.4028111650311947 -0.5140246170613111
Ar -0.2367926566706689 0.6954833130099007 1.252470240632708
Ar -1.850706052669284 -0.7698960865238603 -1.014288111592255
Ar 0.155463075658617 -1.425295810671375 -0.4465389630020711
Ar 1.113868739033297 -0.5815841725100855 0.8914853170377709
Ar 0.3967562280572515 -1.407620018638484 0.6909204636224622
Ar -1.300527579746011 -0.3071266435474132 -0.172342728296077
Ar 0.7337599252834361 -0.5965937736835324 -0.9144661124587372
Ar 0.09431903887666855 0.06596680639631247 -1.526011850226567
Ar -1.063652704969755 -0.5918042182270692 1.773009586691032
Ar 1.459410710215909 0.8523342929138027 1.981146385732069
Ar 1.83008517778137 -0.6514046034576469 -0.8610390604973621
Ar 1.208423449431711 -1.184707626431065 -0.07687944606490472
Ar -0.4258943931062464 0.2519042196259932 0.1869853500562853
Ar -0.9385924794510984 -1.301575172661509 -0.7026210756403919
Ar 1.310481781747656 0.3379397372917085 -1.090802172749224
Ar -0.9769274675333618 -0.3063775094423452 -1.487720566725543
Ar -1.181141036020942 -1.348374004459036 -1.771851329872822
Ar -0.1332240149397874 -0.3655873388018921 1.049688476352624
Ar 1.577324166522302 0.4584223103158885 0.9173943096381787
Ar -0.6932269526833182 0.5624952994840138 -0.8398168548461447
Ar -0.324842266423881 -0.4294555643341619 -0.6496258683953544
Ar -1.493041408001172 -0.951166276186277 0.7980866042110212
Ar -0.1951968469417836 -0.03563435059830862 2.111921975864897
Ar 1.347980983472737 -0.06908532431646659 -0.0634867183308663
Ar -2.28686265892901 -1.314334502099807 -1.878661230474468
Ar -1.824223076864003 -1.884164918827277 -1.025898000162246
Ar 0.4450444395497083 -0.9447771529720829 1.736803987436719
Ar 0.5604378830036458 0.4061899515461506 0.5675731814226439
Ar -1.160239897501231 0.08933403951465255 0.9349106009715801
Ar 0.7276756354726835 0.1398416954605568 1.589096028549362
Ar 0.7852220253728778 1.237174554979999 1.195790203353596
Ar 0.3856514135664642 -0.5128271717085887 0.1073935868283691
Ar -0.5171345665226739 -1.387888336862015 1.287902322621943
Ar 0.3320264786253082 0.9673910658575743 2.180766222431853
Ar -0.5599123633721607 -0.9797238317079372 0.2698645915830712
Ar 1.220558072842921 1.016679086488813 -0.04276449138004798
Ar -0.1296942885224749 -1.069027265312466 -1.487399390335916
38
algorithm=ase_ga size=38 seed=0 index=4 energy=-159.0394385926638 step=5
Ar 0.8784074057612973 0.2814374727072956 1.860241592305364
Ar 1.024706707137431 0.3728555915967272 -1.49233513411943
Ar 1.123034501313395 -1.657934180897481 -1.457575695872692
Ar 0.1885287197766428 1.031045421142309 -1.14811617132081
Ar 1.085175453242126 1.550564017090614 -1.480523289942366
Ar 0.4503144019990091 -1.577867718465701 -0.5364531298979194
Ar -0.9635313335677718 1.378952964466813 0.30115065579529
Ar 0.9089900188890159 1.373742017403135 1.535025465474736
Ar -0.1974762986818734 -0.6681456040906433 -0.6789378656970587
Ar -0.5884790281038792 1.610547948065643 -0.6924475319330119
Ar 0.4990827669880815 1.853767511874227 -0.4905752500586589
Ar -1.110761214741886 -0.6498437746674687 -0.1269185520439974
Ar 1.133934035131073 0.2941286929108576 0.3059278931757295
Ar 0.6520364882817961 -0.4487325920660741 1.001153717482828
Ar 1.523953579905215 -1.212412518228238 -0.5312839282529882
Ar 0.4584801969763569 0.1924606113143427 -0.5659342163939829
Ar -0.1472850673197663 -0.09931251129520746 1.655835208920981
Ar -0.6172347010322438 0.3582406379048977 -0.6060587548470016
Ar -0.8972386809006683 -0.4881045864323943 0.9517688844804824
Ar 0.023193919170078 0.9905025710981368 0.003773133297835424
Ar 1.773194649857875 -0.7022221911318675 -1.520994909102262
Ar 0.375079146821315 0.6053151832937325 0.9643497084944912
Ar 0.7622776835814082 -1.517965712068463 0.6256336121235464
Ar -0.6835269836024037 0.6403648621101247 1.055665180555055
Ar -0.06080659511852156 0.03238777816643473 -1.525958441673962
Ar -0.2150313380950082 -1.147287492425752 0.2966640874551236
Ar -0.8353534920999861 0.8885101407758004 -1.530731996358753
Ar -1.30523635212879 0.3330532645093447 0.246230126318354
Ar 0.9409023904404787 1.397377195112578 0.4341727909674091
Ar -0.05166646206559836 0.9805812749843049 1.904465658737457
Ar 1.526744708037792 -0.09971313402618462 -0.6243681958375229
Ar 0.7501955701241431 -0.6697964176439077 -1.168492796156258
Ar -0.1593381409286587 -0.05775421342490802 0.2986365910460489
Ar 0.7304515707307938 -0.6662713077952195 -0.04187121576151353
Ar -0.05887712728035087 1.594731263974578 0.9340582597491842
Ar -0.08202899347516619 -1.171858514433579 1.373570452228762
Ar 1.178240167901618 0.9803276122562496 -0.5546309899338042
Ar -1.505614980794597 1.003110725045468 -0.6174784474188147
38
algorithm=ase_ga size=38 seed=0 index=5 energy=-150.6573528108052 step=6
Ar -1.409999285326704 1.086002571503953 -0.830889651641923
Ar 1.409974193778414 -0.1277194295603585 0.3168326623973089
Ar 1.396680585290839 0.1565269942386645 -0.7937040269929714
Ar -1.055538294136333 -1.526186763252193 0.5018565261895324
Ar -0.1634272416021939 -1.227137947482988 1.118166260233068
Ar -0.2541848339714284 -0.2295552584431839 -0.5456666852172622
Ar 1.43023980634576 0.9348830096919298 0.02836694601419338
Ar 0.02531494677633779 -1.281968820905686 0.04435701654875551
Ar 0.01037732508003888 -1.149652968296047 -1.076477698469218
Ar 1.165284101837232 1.929305108826286 -0.3287352896216548
Ar -1.714713432585456 -0.6515153781184401 0.2904146100337555
Ar 0.7706460455411221 -2.254095926088595 0.1822070049257967
Ar -1.191525259724864 0.1869608962760323 -0.2244580207861675
Ar 1.088908816527994 -1.227805166102988 0.4048242013413842
Ar 1.148185552014576 1.958860590886939 -1.444513542046945
Ar -1.06218954360964 1.205608828264125 0.2283907220007317
Ar 0.3943633736035292 -0.3912632865278331 0.6266288946909617
Ar -0.09680621008520258 -2.155862071108567 -0.5612594193736296
Ar -1.203228051571654 -0.7725176282162917 1.314184800686106
Ar 0.5393674622722121 0.3727690864987943 -0.1482480970492402
Ar 0.7573958287401812 0.63974509208124 0.8780381170791954
Ar 1.804550123280543 1.190558617460667 -0.9685062420193008
Ar -0.2333908698881842 -2.223087099630153 0.5805804914343495
Ar 1.859778290662796 -1.570887366118255 -1.245031605100791
Ar -0.6485446978818238 -0.5176039650419444 0.4199397491584296
Ar -0.2957463527741582 0.4930852315925403 0.4982468787092599
Ar 1.150711660891569 1.690927200053931 0.7822922435867112
Ar -0.3534911798152738 0.8628637971681121 -0.5686331872221962
Ar -1.314238938659831 0.2571680170667742 0.8618711376278965
Ar 2.129554930058164 -0.4613252692419696 -1.384053897972774
Ar 0.9042495192253941 -1.631464618951906 -0.6862920140777724
Ar 0.7249682201020536 -0.6193092534070538 -0.4061645083411788
Ar 1.803198503309046 -1.919378679544546 -0.1373040238536223
Ar 0.3066346554205083 1.38500097197648 0.1417141814280519
Ar -0.9476793768017356 -1.06786931863366 -0.4855518877635444
Ar 1.765046702327552 -0.8569041606012529 -0.425048407878479
Ar 0.7054453422850622 1.096785403456309 -0.9031103758220552
Ar 1.073201337184623 -0.784935044290231 -1.40013171477089
38
algorithm=ase_ga size=38 seed=0 index=6 energy=-144.6428202608751 step=7
Ar 1.271575808950274 -0.44930398126458 0.4453260293548317
Ar -1.390880939197372 -0.6504644637549214 -0.04183215542195039
Ar 0.6026910315754181 0.062131094948916 -0.2484616643792531
Ar 0.8071737161718879 0.5303878805768755 0.7045282141008631
Ar -0.1662585745897897 0.5800104220523917 0.2855689559949208
Ar 1.562484079157287 1.45856273136275 -0.6084632443153972
Ar 1.62975966958982 1.267126885393992 -1.701286441169857
Ar 1.333596043803788 1.459507384392358 0.5089445523875954
Ar 0.9749205019251559 0.6099435468910762 -1.086657388223162
Ar 2.070330945451981 0.4916373592312897 -1.027745375398146
Ar 2.556154489607063 1.488927833597143 -1.098223302430368
Ar 0.9275352832625967 1.122476858179391 1.583614605824279
Ar 1.465029688837576 -0.4007239241397599 -0.6833340082218969
Ar 0.5820108535018694 1.161891658153815 -0.2214933022702419
Ar -0.470361067070505 1.528729677842155 -0.09158316956413452
Ar -0.834875068858103 0.5186850697353553 -1.728217025984763
Ar 0.2112828601530087 1.464965980069698 0.7920574452868969
Ar -0.8699419835120151 -0.08855865037665987 0.7680762943067121
Ar -1.029541302910839 1.292632690569503 -0.9827112054882793
Ar -0.9588270923204477 1.055759490224362 0.8107646411752909
Ar 1.904024809880994 1.632507535131879 1.437866620522526
Ar -1.118635127053687 0.462862372570888 -0.1942722030631065
Ar -0.08447954491236177 0.5440460855229776 1.364239220070381
Ar 0.4712064469650223 -1.013757195206683 -0.1881852458272179
Ar -2.734647561280982 -2.128325861606327 2.312761345906176
Ar -0.374423036060311 -0.3314895180357805 -0.2092804970970542
Ar -0.1909290818878565 0.5886735458673333 -0.8114859051176332
Ar -1.677946302454945 1.238431293797307 -1.884656628370725
Ar 0.2014454717533767 -0.3506537880730151 0.7270225591956281
Ar 1.829144553530666 0.5889896692393293 1.029250493962742
Ar -1.792714937767184 0.5046876088874148 -1.053501472134243
Ar -0.616129935025585 -1.291591382783459 -0.6227025055851092
Ar 1.567226303676763 0.5221641890699723 -0.06006687165186651
Ar -1.594461903190164 1.430742818482082 -0.04271751766262499
Ar -1.03870086711049 -0.302002821063474 -1.042009126430549
Ar 0.6279930972725213 -1.342937096064592 0.845161666668377
Ar -0.481493846847732 -1.16274632528902 0.4822432778733559
Ar 0.93523914521948 2.181746545326778 1.244361666094001
38
algorithm=ase_ga size=38 seed=0 index=7 energy=-158.6284128773002 step=8
Ar -1.330910545147568 -0.01067438243061184 -0.3930484202776147
Ar 1.753183564631623 1.738384515950178 -0.07987423528657403
Ar 0.7280740030365632 -1.859163857398875 -0.2630918642958081
Ar 0.123031741527106 1.154533254537501 0.8106042388267738
Ar -0.8231633070865488 -1.705006936278158 -1.130588648247175
Ar 1.717317433684096 -1.415816639933098 -0.3640885528955134
Ar 1.517120400075331 -2.113060944085719 0.4818562621477309
Ar 1.601411287659022 -1.016080052898586 0.6464303883936631
Ar 0.614572633712049 -1.522881892975722 0.756001038018928
Ar 0.9856891610141122 1.016707831867083 0.1536108615676375
Ar -0.7024406721873041 0.5316295880192238 -1.119583888410784
Ar 0.7475086118017836 -0.4981736100913282 1.10057684383079
Ar 0.8067136035478476 -0.7550900689937055 -0.0948577089246808
Ar -0.7867978771493479 -0.5870805236491365 -1.236103826630049
Ar 0.3073928142097219 -0.3130720809014318 -1.339256809548814
Ar 1.011923927113684 0.5783928935341501 1.172336522556674
Ar -0.6784468385347613 0.5507757185002783 0.325716749361691
Ar -0.2381151133231287 -0.1390122607130446 -0.4155437094531095
Ar 0.2424321587042029 -2.097965354511692 -1.205225035457131
Ar 0.3624447651419643 0.1838664122685503 0.3830371774469162
Ar 1.834199984966195 0.6773792883311266 -0.4700559367473178
Ar 0.03079152755425681 0.9759740320903222 -0.3800318667750346
Ar 2.272206773743939 1.943048004353122 0.8858517051795727
Ar 0.30899571638929 0.7672221631722546 -1.447550236775864
Ar -0.2460330881641357 0.05200211934330357 1.244625881718526
Ar -0.01170659283442167 -1.158613159625124 -0.6608899494627368
Ar -0.04511477348971234 -1.22620252230155 -1.787720169067007
Ar -0.1358926393849754 -0.792073325107555 0.4483912789777217
Ar 0.8019498958930249 0.2470833835404533 -0.5790610001929893
Ar 1.960453845221359 0.9083765244392461 0.6455279179876421
Ar 1.362676349096063 0.393219105651013 -1.478663421083772
Ar 1.651000765810454 -0.3929370930699382 -0.7275017942379653
Ar 1.042638118492759 1.326450776242225 -0.8782146429663691
Ar 0.9549234129507603 -1.179859433434965 -1.140799333882586
Ar 1.437380776576512 0.01122027552262978 0.3128424517961905
Ar 1.187415896326318 1.673705215385634 0.9774375139783726
Ar -0.9841167545140281 -1.034640200050207 -0.2266578374284692
Ar -1.125202278953116 -0.3796181019152677 0.6568478507247049
38
algorithm=ase_ga size=38 seed=0 index=8 energy=-156.1898264447047 step=9
Ar 1.46083031240229 1.491202872089359 1.566438307240584
Ar -0.4486241719313147 -1.881297753037109 -1.495039682142396
Ar 0.2881234606286076 -0.444598729999814 0.3777822380763996
Ar -0.5300542783315793 0.342714898278159 0.1853211362370881
Ar 1.480652947821103 0.6600104003803731 0.8405358408970121
Ar -0.1526344561552448 -1.033954385328127 1.231792064732868
Ar -0.8102345987030548 -1.426449651392925 -0.520512094996599
Ar 1.02580616854181 -2.069088761864454 -0.5870990166919714
Ar -0.235770073933569 -0.4688140739796322 -0.5382957035228378
Ar 1.710216038241599 -0.6500910335791907 0.6255374327319659
Ar -0.7659859672470496 0.4585935093077426 -0.8738118205244195
Ar 1.852740597025656 1.747182879793764 -0.6006523085814565
Ar 0.003569227400873407 -1.453046414957708 0.1993961902050815
Ar 0.996612913210245 -1.064770321327352 -0.1363688342989016
Ar 1.66844266496656 -1.775174262824965 0.3285955042689191
Ar 0.8869998533051411 2.171389965248836 -0.1386081574167677
Ar -0.01239384451648001 0.03775526811778689 -1.534258576519755
Ar 0.2490852704201303 -1.354858843892219 -0.8662163548958175
Ar 0.8526051531077884 -1.278981232813315 0.9167441599579585
Ar 1.737828354482191 1.694361710511144 0.4973405073419553
Ar 0.4590712374907842 0.5793541586738711 0.5348165378043767
Ar -0.0796605801436898 -2.315788064270852 -0.4788820880560131
Ar 0.2771445506946554 -0.9733796232561626 -1.874737933197251
Ar -0.3465772996790207 1.142618583795534 0.985625810839894
Ar -0.784445208444885 -0.7054437618271343 0.3947438883592888
Ar -0.006568058204472615 1.382728985593584 -0.05681306803195464
Ar 0.5728979500361805 0.8135227825312253 1.580297684022517
Ar 0.3070621561177301 0.4501957498793331 -0.5439277926636993
Ar -0.2180401487843678 0.06070840692283775 1.222308015818527
Ar 0.6809140383391729 1.599934770541701 0.7912275635663306
Ar 0.8084572919899927 -0.4271474477157131 -0.9886826401078326
Ar 1.075001225764496 1.110065511369392 -0.1587460894063704
Ar -1.324719214014694 -0.4321488928109604 -0.5279693385991778
Ar 0.8879023610720767 -0.1967665781455745 1.227784127316072
Ar 1.198119389073261 0.02587933772121508 -0.04598839206636483
Ar 0.668978483690288 -2.274620305020612 0.4246730451928157
Ar 2.09481259013791 0.7532105617493375 -0.06861678953465727
Ar -0.7301365815836863 -0.8030058524433226 -1.432663550485918
38
algorithm=ase_ga size=38 seed=0 index=9 energy=-146.7149696886072 step=10
Ar -1.421797026526391 0.7040691024744213 -0.5451060734834976
Ar -0.7166145212995798 -1.807912727713169 -0.1512670598110208
Ar -1.11648732433337 -0.2560566258198188 -1.020762467984706
Ar -0.6595608615378169 -0.7029597460653471 0.9631337263068181
Ar 3.194697042407003 -3.107034125116918 1.665420894874564
Ar 0.8956467006296084 0.1552069499623525 0.7540127356480486
Ar 0.5761284589975773 -0.2727184289146626 -0.2262558196194276
Ar 1.00753168930585 -0.678516636894365 -1.155862743331656
Ar 0.3008420987935945 1.580944670658718 1.935119552383396
Ar -1.659681549778704 -0.4617461074887124 1.243235887944663
Ar 0.8493247676233863 0.6136191049190298 1.80090265255598
Ar -1.109471531456354 -1.397008479643968 1.680857350422565
Ar 0.4493310178059484 0.8447291463770971 -0.008490490231207085
Ar -0.1541900792270498 0.07634493273037804 0.4690276142438404
Ar -0.8836131984338454 0.3592805550401674 1.216304972484914
Ar -1.236166185339862 -0.06475420057907171 0.2345083669747088
Ar 2.689057208151935 -3.073786107402869 0.6638500813501663
Ar 0.4279233260399145 -0.2300876356843312 -2.011218467760671
Ar -1.411878221061994 -1.390378623296745 0.6250823661412889
Ar 0.3051320133682491 -1.349307105455611 -0.5193375633091182
Ar 0.088680047762868 0.9251765390624426 1.068538472112015
Ar -1.540873587205314 2.717114565346313 -3.204526259929767
Ar -0.729167162514087 -1.306378726641486 -1.106088847634557
Ar -0.4921144315940107 -0.7431143198004782 -0.1304913520635217
Ar -1.527491375594594 -1.012820077994122 -0.3738910372307249
Ar 0.348963842665885 -0.9046988349086434 0.6340611705989619
Ar 0.1348361071094414 -0.1456428304472907 1.472535680972919
Ar -0.7935640591172133 -0.3874492446716558 2.01600135622589
Ar -0.3658198140812753 -1.743419480383635 0.8695606968135381
Ar -0.05281749492691915 -0.4740174699188023 -1.074964518338901
Ar -0.6286024457079313 -0.6289809738623922 -1.983845580828442
Ar -0.4243365806610158 0.4091474508177395 -1.613326140383807
Ar -0.01449038923112777 -1.179840336616161 1.737224731545906
Ar 0.2375021314025353 -1.316907228876179 -1.677929693044958
Ar 0.5782317432427166 0.4161143017397305 -1.082493379494767
Ar -0.7342316474250253 0.984282821748144 0.3095183457227386
Ar -0.3860815252736109 0.3638479796142861 -0.5171751966030285
Ar -0.2719996446733665 0.6378496070737842 2.100553069453449
38
algorithm=ase_ga size=38 seed=0 index=10 energy=-162.8948176872331 step=11
Ar -0.882131716484725 0.4749147117064507 -1.526219404293711
Ar -0.9064171220146228 -1.050867902256967 -0.3889052114777355
Ar -0.64618161712267 -0.6143398676263998 -1.355607549289623
Ar -1.002610608149549 -1.319728038339289 0.6940883373877862
Ar 1.446077581763293 1.136636023435568 -0.4791933729330294
Ar 0.182982245307701 0.06435050361760657 -1.58491659115305
Ar -0.09364899740250092 1.089553005022836 -1.982866386360449
Ar -0.08952676837425352 0.8516543917225927 -0.8945586206989222
Ar 0.8591020052018822 0.2275411816557043 -0.7398000488258005
Ar -1.184136185166883 0.0112143332154541 -0.593948076736701
Ar -1.821959248072967 -0.6354487349993242 0.08865612901696528
Ar 0.1265993937031389 -1.234294809824923 -0.758446662658312
Ar -0.4953131025710886 1.800422047051959 -1.231568633881933
Ar -1.61150664003505 0.4878683550657276 0.2942611303612559
Ar -1.175111246587207 1.132932529604914 -0.6372291557313337
Ar -0.3182202610561631 1.695458204028123 -0.1422720015551914
Ar -1.123654421213598 1.431589639279221 0.5609004869702434
Ar 0.8779435439494967 0.9913536735323607 -1.490691150338382
Ar 0.555727388645188 1.75344012846302 -0.7834553162547069
Ar 0.2384119218378403 0.06180700339744252 0.5145097241309716
Ar -0.06032242432431608 1.262693698970617 0.8586858610918099
Ar 0.6870664180049489 1.939229131629745 0.3262406230670201
Ar 1.002249085044108 1.032048406771862 0.949633352957744
Ar 0.4990514229415041 0.9421825261867891 -0.01874489931028843
Ar 0.8780631467554338 -0.6706822265083324 -0.1595975668135749
Ar -0.3574391739302631 -1.948736099263366 0.01971923483229603
Ar 0.273289829741471 0.409137602309524 1.531737554026812
Ar -0.1170164788552286 -0.1821970153738882 -0.4941541380535792
Ar 0.7880382749060069 -0.7816089730072178 0.949716833081246
Ar -0.8542955314971896 -0.289584683309262 0.4035631700080987
Ar -0.817013181982205 -1.363725586791226 1.785702940702449
Ar 0.7209599800634547 -1.698258499545532 0.2089839056851047
Ar 1.306641583861367 0.2353338234792311 0.2714797749202071
Ar -0.2663542277054898 -0.5500560116711334 1.28137232489856
Ar -0.05295485476758879 -0.9494551654989962 0.2770645657136147
Ar -0.7719229794903077 0.4848987144071892 1.13544703512303
Ar 0.01669280188956304 -1.639520491966098 1.092022885294913
Ar -0.537572939670913 0.6558719466905978 0.06948555995095763
38
algorithm=ase_ga size=38 seed=0 index=11 energy=-164.4958031695014 step=12
Ar -0.3413168182365656 -0.3598717579990003 -1.779138024527629
Ar 1.421252738028036 0.3195039457974176 -1.141311601989658
Ar 0.8335954623283817 -1.502279821660129 -1.057811215964208
Ar -0.2195936118148812 1.156467692546089 -0.8202385830498485
Ar 0.8775687534709713 1.297187518650617 -1.012384002437801
Ar 0.1917764489422624 -1.788289083311589 -0.2319436890032287
Ar -1.101562364749022 0.8954475113831063 0.7669937437800758
Ar -0.2122351124625351 -1.144575308028847 -1.027231481860171
Ar -0.61050213920383 1.632308582532148 0.1033490271604261
Ar 0.4716635188238309 1.347422891754128 0.02758199020760433
Ar -0.6150759675654932 -1.03672391516982 -0.01206783116449408
Ar 0.5112050180393368 0.3744466539795915 -0.5663525586534391
Ar -0.4569306796964788 -0.1229278785722936 -0.6781916991898492
Ar -0.2974064727012958 0.5915058740474383 0.1056360178825076
Ar 0.2748306664423763 0.544870194135069 -1.603444864923543
Ar -0.8629126130838132 0.5512410639480224 -1.455800938389903
Ar -1.125893537777073 -0.1126698858105112 0.2948094641155487
Ar 0.6234111304410832 -0.4468987006234946 -1.24920918390251
Ar -1.2095272017174 0.768471698766971 -0.4111872311797018
Ar -0.0626977881936666 0.714375081970495 1.137954730268448
Ar 0.9723167292550163 -0.6147995004234466 0.8125120259288364
Ar 0.1796560663025756 -1.338997975900647 0.7425542930725179
Ar -0.8512604672230152 0.01669292408233288 1.409039639250609
Ar 1.075975978228308 1.208572399758457 0.9551171717131665
Ar 1.659027218938411 -0.7892061432454345 -1.020285703556878
Ar 1.218449016310569 -1.322272380945871 -0.02621972313849582
Ar -0.1225472479741968 -0.2977629661898109 0.6559134661554069
Ar 1.705665510181562 0.2677370239698197 0.8010086656768012
Ar -0.07795219300362397 0.3198761673362006 2.160321477828589
Ar 1.374726103849371 -0.2180936480003502 -0.1541782075073495
Ar 0.1265806184417897 -0.6335454426519058 1.630214383380001
Ar 0.6879300212269412 0.3513196562267515 0.4604452139120843
Ar 0.8422203887857549 0.2316979784357135 1.528852670696647
Ar 0.09206948668193335 1.76836676112748 0.9718311635194357
Ar 0.3892271363960154 -0.6642853199018743 -0.2057423513743471
Ar -0.8324042514761251 -1.019477913180929 1.069709559326193
Ar 0.507731702744755 1.245649575559538 1.902782685411894
Ar 1.44448057035996 0.8741498844840589 -0.1339306137267033
38
algorithm=ase_ga size=38 seed=0 index=12 energy=-162.7286100059293 step=13
Ar -0.995102931557031 0.4800002661912139 -1.705045149668723
Ar -0.8273341447970918 -1.0522602535236 -0.5050032862797587
Ar -0.4361702275803029 -0.4966777886352879 -1.529927360111871
Ar -1.075922383371372 -1.129551311995556 0.6314192138195973
Ar 0.05232929217696775 0.5442000533094835 -1.398020522052208
Ar -1.222052289117479 -0.06369876155165102 -0.8083239032540839
Ar -1.791597596731844 -0.7186232483898777 -0.1000437208792157
Ar 0.2757641558490088 -1.187108783433173 -0.665267789684719
Ar -1.949613859489082 0.3679399978409329 -0.0959134820975184
Ar -0.3167637844140893 -1.842377555309677 0.1161943184401308
Ar -0.1579344117137531 -0.1984106392299886 -0.5577507855258984
Ar 0.6405459188527862 -0.519560713569001 1.022615541436557
Ar -0.9600334237206509 -0.0463909699541663 0.2469109641855637
Ar -0.9963156621543342 -1.175468405025794 1.73715330762046
Ar 0.7295053833517214 -1.455052269723131 0.3569293349037849
Ar -0.4512196827325106 -0.3566241659637718 1.227946280405004
Ar -0.1267827990302806 -0.8056823667328904 0.292274995410884
Ar -0.0727643454947989 -1.4239214668446 1.162422222951225
Ar 0.8283365689056911 -0.4250226531816597 -0.06227648627971629
Ar 1.096120832735378 0.928698206959174 -1.249820504349649
Ar -0.6529375885157576 0.7184150009896536 1.096236363336625
Ar 0.3693867832347267 1.482264680201662 -1.889407507238829
Ar 1.193816346671214 1.370908662811342 -0.1492851741880811
Ar -0.5469438665047902 0.7713699649143627 -0.5371120906216224
Ar 0.4507338585980192 2.184494366167575 0.08577870027599228