38
algorithm=ase_bh size=38 seed=0 index=0 energy=-157.1228410033794 step=1
Ar -0.03100485746029608 0.4053259796682842 -0.7255776042747425
Ar 0.7218053099212262 -0.6543182387557175 0.5021642350758221
Ar -0.6060409225070603 0.8126279759226143 1.427507895379027
Ar -0.3692329194572194 0.7641303439591721 0.3610434834225305
Ar -0.5315887289317786 2.118939411964257 -0.8287516255413759
Ar -1.316595209348969 -2.267646057714217 1.25126213462557
Ar 0.4875495497588106 0.429102777647447 1.976428565183852
Ar 0.07323914557256124 0.05035739669485523 1.065827514548384
Ar -1.818005649709059 0.7787037488900868 -0.760205234678241
Ar 1.546863983465742 -0.1643810925970099 -0.02330353843337528
Ar -0.7988237758634112 1.123147234294067 -0.5348391753568297
Ar -0.6512565358351442 -1.879647266018263 0.4523206960753918
Ar 0.4532227035431675 1.073325325306675 1.040721052670712
Ar 0.6471252241069101 -0.4370200006758969 -0.5966119149232552
Ar 0.4823963124501717 -1.692954646748946 0.7881670465338515
Ar 0.3478471723620949 -1.363047719223877 -1.147059013224958
Ar -0.1800563657173107 -0.2536887251901586 0.08218018316190673
Ar -0.1438820330728852 1.237834214561193 -1.408524209331679
Ar -1.029510926586662 -0.9213292770009354 0.03351517213082755
Ar -1.089150150838829 0.1181412386896633 -0.2911953526392922
Ar -1.321179634007337 -1.167939281265258 1.075716187025936
Ar -0.4205154134871745 -0.587477183051096 -0.9131755142912203
Ar 0.5536953166573444 -0.7945862877267721 1.575435936861546
Ar -1.454364490329262 0.9375024137043505 0.33856351069888
Ar 1.161859083732294 0.144051653336677 1.109745935809025
Ar -1.502033335779574 -0.6406125046543288 -0.9583679031292383
Ar -0.7708603660515401 -1.620501670962101 -0.7699742270080808
Ar -0.2942795966650134 -0.9335196801508727 0.8819820055443721
Ar 0.03514183213846976 -1.269698841860029 -0.1208960291092096
Ar -1.001995762032033 -0.06538982873249553 0.793582428678245
Ar -0.9381128978885593 0.3623746140072321 -1.343428139506905
Ar 1.118949839391845 -1.363706985015553 -0.2287337771941605
Ar -0.359525832497601 -1.771101958880953 1.545058905135272
Ar -1.247971137442103 1.463244195415923 -1.455075493997335
Ar 0.2682137483249497 1.370076625268062 -0.3298176765107577
Ar 0.6472926875107159 0.4238296203701286 0.1740148333458311
Ar -1.596606724734145 1.832759483330812 -0.4257521492930108
Ar 1.040596598825908 0.6025657839243707 -0.8189146923082216
38
algorithm=ase_bh size=38 seed=0 index=1 energy=-157.1228413476603 step=2
Ar -0.04106956009105042 0.4043625535595833 -0.7290131933330329
Ar 0.7269834855949168 -0.6543035654931173 0.4900795776202286
Ar -0.5881426311182641 0.8142214921825494 1.430896182055178
Ar -0.3651884855371815 0.7644506854304385 0.3614938283680191
Ar -0.5421741660943767 2.118087308901675 -0.8275011854502777
Ar -1.302072940024086 -2.265853464036557 1.267383203497487
Ar 0.5119756120324471 0.4310987862123281 1.966040402112182
Ar 0.08603021435751905 0.05124442150157184 1.061285074451096
Ar -1.828210655254317 0.7785156186111264 -0.7410943868130044
Ar 1.545436347697252 -0.1653133847418503 -0.046484606631795
Ar -0.8060690959709504 1.122714934030768 -0.529182640684301
Ar -0.6471051768279112 -1.879086643268372 0.4593203958327027
Ar 0.4660802403021412 1.074081759491622 1.030086228348225
Ar 0.6382761702228856 -0.438167885687623 -0.6078760014826665
Ar 0.490852339464332 -1.692530244613944 0.7801967358068601
Ar 0.3315263317603726 -1.364636656053272 -1.153445384973681
Ar -0.1800383574628198 -0.2537305617306472 0.08128906868724398
Ar -0.1623275007108727 1.23622337200569 -1.411305547838447
Ar -1.03033737584452 -0.9210595125430437 0.04428556951087158
Ar -1.093702006183993 0.1180955879010157 -0.2807667605243143
Ar -1.308674330647986 -1.166379744689908 1.090439646820244
Ar -0.4334089205652746 -0.5884539979015049 -0.9105404819869382
Ar 0.5725722716202919 -0.7934633903542422 1.56555773795495
Ar -1.450444675820427 0.9382966299414837 0.3527434061781879
Ar 1.175111884963526 0.1445281477608026 1.091169794211564
Ar -1.515436865665941 -0.6412050694785777 -0.9417548665018203
Ar -0.7823662807341876 -1.621153859587982 -0.7617697906929491
Ar -0.284260316373578 -0.9326463870687592 0.8832082651988249
Ar 0.03206240049687363 -1.270058933436511 -0.1234510278732237
Ar -0.9926733446261305 -0.06429564940267282 0.8030126669297348
Ar -0.9560606109860579 0.3611698373262647 -1.335110113417047
Ar 1.114350765631983 -1.364690328815772 -0.2450868074720908
Ar -0.3410770623236102 -1.769368755143516 1.548115228210703
Ar -1.266823333876811 1.462077832626228 -1.44393069748298
Ar 0.2636187519390725 1.36938308644927 -0.3381004822044201
Ar 0.6487256042610436 0.4234925198816056 0.1617663292461521
Ar -1.602063377875545 1.832815418482576 -0.4106060665118504
Ar 1.029329891790442 0.6010108324827126 -0.8363148480105284
38
algorithm=ase_bh size=38 seed=0 index=2 energy=-157.1228409444884 step=3
Ar -0.04673209977249677 0.4287567862207393 -0.714692187469706
Ar 0.7394443431144971 -0.6282063149543201 0.4943036104355925
Ar -0.6410511113251545 0.7729848614494952 1.444161342059344
Ar -0.4000296131195908 0.7539200397383182 0.3777033348530948
Ar -0.6064760239836069 2.12562256378855 -0.7856031856807303
Ar -1.243362835908963 -2.326061326128496 1.204803361332689
Ar 0.4637385096760581 0.4170512053005954 1.988896839384421
Ar 0.06527716815676671 0.04213705089737328 1.069676307894206
Ar -1.845564800537684 0.7403310322598784 -0.7477201639097164
Ar 1.54825273301024 -0.09952500286486082 -0.01872878804291499
Ar -0.8395879332468287 1.115493092355929 -0.5122951414968647
Ar -0.5899361580480138 -1.899353956061801 0.415829963082096
Ar 0.4094221020368877 1.078034582412744 1.065956700257195
Ar 0.660019369679946 -0.391872861796187 -0.6002066758473231
Ar 0.5356619140998232 -1.680021277255014 0.7589551433439672
Ar 0.3946021777161721 -1.31664379095702 -1.169801558523806
Ar -0.174770277331224 -0.2509560305655901 0.07940273947682766
Ar -0.1868128877367807 1.270233325430747 -1.381413915365862
Ar -1.000308536830934 -0.9466555536131879 0.01481671592444332
Ar -1.095323155645598 0.0963521758593277 -0.2894887397796261
Ar -1.285846707912396 -1.22391265826966 1.05099576559676
Ar -0.4009207066112652 -0.5730810240069728 -0.9231238309257613
Ar 0.5735899000829782 -0.7955425953510388 1.564040457891431
Ar -1.490484454410814 0.889844332150209 0.3551402960588403
Ar 1.149833632635419 0.1727865784629307 1.11897463505264
Ar -1.479811033991633 -0.6629150349419671 -0.9728481530664521
Ar -0.7153998117019976 -1.620313201906652 -0.8014856295987524
Ar -0.267256065475295 -0.9500912029125861 0.8652441205297344
Ar 0.07623425126997067 -1.254625626089212 -0.1430080771647693
Ar -1.004576197475407 -0.1055325414250129 0.7917324100044965
Ar -0.9502146702891217 0.3665376331281966 -1.336199768457634
Ar 1.162931503829272 -1.308692191115049 -0.2491796170787186
Ar -0.304937300350472 -1.802432239813831 1.511437464094185
Ar -1.297967523717819 1.457959220430408 -1.427082622726094
Ar 0.2176680498836568 1.395284325048045 -0.2989720185291937
Ar 0.6282234134017454 0.452983750196191 0.1872692270833718
Ar -1.661897504268925 1.794605998370633 -0.3917963194417558
Ar 1.017573582617803 0.6649886672596035 -0.8006595900945735
38
algorithm=ase_bh size=38 seed=0 index=3 energy=-163.3178505668654 step=4
Ar 0.1799363259006293 0.2412125441838107 -1.365809671613095
Ar 0.4143024251955901 -0.8127727462913531 0.5437721058618279
Ar -0.8676233454553606 0.4841147514687267 1.135588567849423
Ar -0.5935219436652271 0.9421797154691991 0.1439459350790659
Ar -0.4112887612162874 1.154617190816286 -0.9409723554117781
Ar -1.034815289180367 -1.714556255322383 0.3860339932177261
Ar 0.09834749259850012 0.6658349939591957 1.586953885750712
Ar -0.1744136454685351 -0.4029474900343764 1.420171853375298
Ar -2.223861255278004 0.1153295074192007 -0.2372615717429258
Ar 1.037793191517974 0.00761365961586851 0.1790688593112811
Ar -0.5107450169785843 0.1402627522586563 -0.5355947479629267
Ar 0.01888537799833382 -1.61315592800041 -0.1038365681213004
Ar 0.5884799381815722 0.9655466386235941 0.6495510493370881
Ar 0.3305688541486226 -0.499389406350474 -0.4874792865523702
Ar 0.7910465792934313 -1.809154242852506 0.7050663681864614
Ar 1.912281590193718 -0.5060345367065709 -0.226736743479212
Ar -0.05352129785425781 0.1151849009384783 0.477034466393372
Ar -0.9341382617308253 0.3207405127984043 -1.516368926141473
Ar -1.729422604774612 -0.9140432275575552 0.09254541677622272
Ar -1.254009603575866 0.06375859177173976 0.2366191636289687
Ar -1.123593906454202 -0.7204531738668233 1.006380945931374
Ar -0.4378920683020884 -0.6829294284699673 -1.245306579185179
Ar 0.7005701002816331 -1.09064116247041 1.561606832922519
Ar -0.3323675452978249 1.509880534280108 1.005027324670797
Ar 0.8422460546329156 -0.03708644636744621 1.225733711084597
Ar -1.400006020558793 -0.3865832907063434 -0.7875986266594432
Ar -1.008136006313229 -1.425079962264955 -0.6689461690418319
Ar -0.5860971250600986 -0.7514298101756748 0.06925944752765359
Ar 1.082562057546256 -1.230574597678837 -0.2151240484718171
Ar -1.622368622320114 1.074747727776392 0.4539336474194998
Ar -2.052952765458679 0.3000711487282908 -1.345753979432791
Ar 1.472221332275131 -0.8584807732002885 0.762645245945203
Ar -0.2447291720257597 -1.45809855771914 1.068142177061859
Ar -1.398579606425892 0.7740406836607748 -0.5990347317580741
Ar 0.1063292322528521 1.717897246823034 -0.06962576623321186
Ar 0.4061599042497923 0.6792022175802286 -0.3834284235813847
Ar -1.058764896914448 1.806426907004604 -0.2765743142589294
Ar 1.184323545561311 0.03422160159035725 -0.9085940365281191
38
algorithm=ase_bh size=38 seed=0 index=4 energy=-161.0322742262224 step=5
Ar -0.1394161506406134 0.1908632567125758 -1.032791521724911
Ar 0.5467109874363056 -0.8237056852569489 0.342360166906283
Ar -0.5274505660148687 0.5717484654737084 1.608202290317718
Ar -0.3750026419427167 0.6762704905438615 -0.07008112559810352
Ar -0.6051762455708763 1.203331568398016 -0.9791701512594132
Ar -1.849147428781601 -1.682542959374691 0.138003343677144
Ar 0.2599935068699514 1.37780093683546 1.528772964315408
Ar 0.5366300094535408 0.3124760430758359 1.593370540357792
Ar -1.233259221876241 0.2449618450615343 -0.5359459905217951
Ar 1.399574078154875 0.7025625326925169 -0.1521455524406486
Ar -1.12424924771592 0.3500470545271125 0.6374988648922776
Ar -0.4864174251431238 -1.036902690772058 0.6206256556762741
Ar 0.4890868627187298 0.9619367735885805 0.526803705682943
Ar 0.5044260553105168 0.1167997388215499 -0.1628975897264357
Ar 0.2797713886941281 -1.768943382721761 0.8881058486103367
Ar 0.4430019723254166 -0.7529289047741884 -0.7951078659201211
Ar -0.08597881461845946 0.02060383246482795 0.7419591931483401
Ar 0.2070194784054916 0.9449205834231204 -1.717423024939125
Ar -1.428002875754448 -0.5993934171701574 0.2190500858210436
Ar -0.4246523472654787 -0.4223863577921073 -0.21198270729732
Ar -1.464257490867459 -1.297962988609917 1.078100870068262
Ar -0.2567551230113981 -1.474505593565328 -1.237566085151328
Ar 0.2496879195300867 -0.7587256322162775 1.411351455333476
Ar -0.5638078220579383 1.289215990088632 0.8062398464818589
Ar 1.112156801349859 0.03279290075607948 0.7191491597208132
Ar -0.9087390944825692 -0.5874767355364581 -1.180417867796166
Ar -0.9608156003719913 -1.363118381849764 -0.3899227141524098
Ar -0.8052659519356183 -2.043220263217392 0.5083902707405771
Ar 0.05435688716257835 -1.624579102029252 -0.1810484752826824
Ar -0.8604644556185395 -0.4382247230297217 1.415947152396237
Ar -1.009312109487671 0.4254278503888656 -1.642800845789445
Ar 1.410702688973757 -0.4388237903785789 -0.2872072116356794
Ar -0.5328970841676053 -1.532752591500175 1.596569464066811
Ar -1.704739126793589 1.090270089168547 -1.070849746495068
Ar -0.2011504467708043 1.759725549999245 -0.1005341216822847
Ar 0.468393306987018 1.085646397035227 -0.6449239010121793
Ar -1.268746340871144 1.271152619247061 -0.0586840147637573
Ar 0.9673969099076285 0.2171114722238643 -1.133965913869637
38
algorithm=ase_bh size=38 seed=0 index=5 energy=-159.875980294894 step=6
Ar -0.06152937782272552 0.3920926012419007 -0.8225352353839145
Ar 0.8864940145710763 -0.6326253006872022 0.496363689295775
Ar -0.5764098930637928 0.7431751337012491 1.208871676380171
Ar -0.3983427733519053 0.9673924220093266 0.1127836727498955
Ar -0.3160764940164625 2.024137633612654 -0.08545357821813357
Ar -0.4770474885472272 -1.859446127297968 1.073595605681544
Ar 0.3952254776100159 0.5344328126975356 1.806467306195597
Ar 0.09275256646905365 -0.05197609046540979 0.9601333522810366
Ar -2.130897447909869 0.6300079516031432 -0.3320584994086366
Ar 1.595531776053774 0.04791884239278244 0.005870826045753239
Ar -1.101722631364687 0.4849008914440523 -0.5834515360452636
Ar -0.1649570794462859 -0.9936104476053983 0.4816049513227701
Ar 0.3988354556656001 1.117506017805881 0.832409860645249
Ar 0.3086938387962856 -0.5858461481568805 -0.4383133460609666
Ar 0.5807245388004184 -1.504597102605434 1.098524665932553
Ar 0.7684115867505494 -0.7641531118921209 -1.41188432035292
Ar -0.5014077166928482 -0.07857134121050556 0.06820619864094379
Ar -0.5453493601007052 1.360626022072829 -0.9496305454358498
Ar -0.7517675643909932 -0.9645854457645294 -0.4788295233940358
Ar -1.567507865377165 -0.3590297688678134 -0.03598932042014682
Ar -1.271821868489263 -1.241631217342306 1.561339257355059
Ar -0.3164771240292475 -0.5064616766526615 -1.368282975203049
Ar 0.8245885461154786 -0.5328135962259503 1.613911766681916
Ar -1.362923300069526 0.5769005928246842 0.4793132541840505
Ar 1.150250948466887 0.3252913615609573 0.9967771542234714
Ar -1.404852761416822 -0.3734668450066996 -1.153897272647887
Ar 0.05121533890232886 -1.511174527938277 -0.9827120249238143
Ar -1.217501952544762 -1.288095814269795 0.4586692703952639
Ar -0.4249802967649019 -1.922289896119774 -0.04189805798810926
Ar -0.9811230709177269 -0.3358543147227646 0.988696427377063
Ar -0.8152464708842824 0.4777010132513806 -1.629689513829237
Ar 0.6258776139006625 -1.566882665989455 -0.0293712903531697
Ar -0.2218281718520042 -0.8937005253329715 1.58223425851961
Ar -1.629909301715543 1.170548941159138 -1.223775802299649
Ar 0.4807376271160217 1.289791181894905 -0.4570071941837581
Ar 0.5360576262580878 0.3429952436543026 0.0783902869323482
Ar -1.339071297770636 1.47800908149577 -0.1756181229922977
Ar 0.996559594582352 0.2028570104628629 -0.9087308705441587
38
algorithm=ase_bh size=38 seed=0 index=6 energy=-163.3755817164878 step=7
Ar -0.6298046913679116 -0.2577950853289224 -0.2166026552495632
Ar 0.5262594383596781 -0.469670279109402 1.076982403994074
Ar -0.56107007654664 0.9620117301271164 1.413060395014605
Ar 0.1854296058803889 0.441397463209088 -0.8211459706652804
Ar -0.2341788655502751 1.463580905326884 -0.7215270952198868
Ar -0.2410644441896202 -2.104152683637535 -0.01355920140622252
Ar -0.026194305310994 0.07491633676680272 1.838831172285743
Ar 1.104549776184123 0.2184933341352439 1.687860296009861
Ar -1.934295706863198 0.7629680330862985 -1.075079561315148
Ar 1.211423447578182 0.1753975467854764 -0.5334737447494639
Ar -0.8755816543234459 0.5611688665592949 -0.8645062300523817
Ar -0.1188914800770066 -1.864288899310218 1.049713013398325
Ar 0.3978200442193209 0.703468464724235 0.983344310793696
Ar -0.0001086005270010677 -0.9949991281241215 0.3053198670360981
Ar 0.8744247771516063 -1.491686562589304 0.8190375968113111
Ar 0.3944492389141814 -0.633676580728841 -0.7024983311167768
Ar -0.4333383771246669 0.01707068655342217 0.8243476119840371
Ar -0.2375613806866109 0.9058909581124749 -1.704113749452888
Ar -1.521525795753024 -0.930348726507553 -0.3099289155107343
Ar -1.644281934553967 0.1762435061016225 -0.1908538885825361
Ar -1.135280062307042 0.01969402202922787 1.650370190345851
Ar -0.4364959409427875 -0.3047909753934699 -1.347024408772258
Ar 1.596278942286512 -0.6578761171338601 1.138053498082422
Ar -1.331027761972616 0.6567588819389494 0.7164191088752645
Ar 1.321321837924906 0.2782976369723388 0.5848400005373267
Ar -1.51430388982706 -0.2868587134230136 -1.177128169756091
Ar -0.515144471927828 -1.245549115689327 -0.6491096482848606
Ar -0.9666775334279029 -1.444003694682503 0.4716201414929815
Ar 0.6845462662889436 -1.613956369436999 -0.2976252406782245
Ar -1.374951411769259 -0.4593491764730016 0.6731820714093196
Ar -1.223659721156827 0.4791725117680086 -1.902656003066813
Ar 1.141189761519232 -0.7107618996724991 0.1243014178575823
Ar -0.5051816844710222 -0.8922616749218093 1.350935862982892
Ar -1.145260179346387 1.489151190777963 -1.362296187500356
Ar -0.4075722891476962 0.8045941317520477 0.1161435249060999
Ar 0.3633241817165849 0.02700441365319324 0.1383216920622215
Ar -1.344780497098026 1.288163477419082 -0.2351013968708271
Ar 0.6704206797643706 1.056054375095049 -0.04341932647432104
38
algorithm=ase_bh size=38 seed=0 index=7 energy=-162.8707073134006 step=8
Ar -0.06129670903306302 0.4067740620188832 -0.3980868690194702
Ar 0.4670378504529324 -0.3677606435969732 0.125316679234354
Ar -0.4628084188834384 0.5922117385039493 1.759676039631005
Ar 0.6012890113756283 1.276688313717931 -0.5884660915172469
Ar -0.481205835090375 1.261702927742679 -0.9726299496701478
Ar -0.6317304213619139 -1.790843943640998 0.6566626825001721
Ar 0.3346618703948045 0.1708905743654082 2.423523398940859
Ar -0.007418788800219731 -0.3749295458340218 1.528735809285221
Ar -1.955591700819158 0.3232636979315589 -0.4959435035716039
Ar 1.535624986480705 -0.1677168082332864 0.1181854039483891
Ar -0.9132805014058092 0.2154400062104684 -0.9854616852693825
Ar -0.4228136233459616 -0.6124372934553732 -0.463176946198317
Ar -0.009447207528235264 1.38828025181991 1.17353905195896
Ar 0.1215871020954103 -0.3118303519130636 -1.3137280866854
Ar 0.3342719443626637 -1.322269887849442 1.061599060104223
Ar 0.8561599091866088 -0.9005581147421974 -0.7219511220702692
Ar -0.1594362030572969 0.3354764076811512 0.7049415087192737
Ar 0.3046619993050417 0.7283473510860486 -1.48949918835102
Ar -1.435653855019104 -0.9680594741807504 0.4849863574105647
Ar -1.037121001287228 0.06888023524466977 0.1117858107995151
Ar -0.8081573014860324 -1.136117809164323 1.513964582165342
Ar -1.516289385804705 -0.6624823036765969 -0.5736181365448285
Ar 0.9889856490746239 -0.4077169016118842 1.065875332535879
Ar -1.027568767428964 0.9544725654999251 0.8493864444413176
Ar 0.634217265483028 0.5500449035825208 1.42666004875495
Ar -0.8878681942074207 -0.7849942625883223 -1.457900950417904
Ar -0.05124062652266576 -1.415965219749086 -1.113846282187383
Ar -0.9131559026985863 -1.56092283544188 -0.3807786967912057
Ar 0.153898249036178 -1.434408355491026 -0.03151847332507653
Ar -1.084708895549412 -0.1131969823562991 1.190761961573924
Ar -1.803999101186927 -0.1066018511764123 -1.513972597411624
Ar 1.17004512522107 -1.20356928190188 0.3143721246429366
Ar -0.4148705259595563 -0.7168207882535345 0.5873295119821696
Ar -1.569183718287265 1.018388815768408 -1.292873256419499
Ar -0.2294420497403317 1.313501846454947 0.1309856437396912
Ar 0.7861833868276399 0.6669725256079702 0.3147154826615827
Ar -1.232833336170454 1.080146972519842 -0.2271530580363005
Ar 0.9417029628970047 0.2071922498325078 -0.7273635903885778
38
algorithm=ase_bh size=38 seed=0 index=8 energy=-163.1714325905498 step=9
Ar -0.05296501992554498 0.5604998203553878 -0.2296848733875777
Ar -0.06000194564617081 -0.9972516460899395 1.224705199054965
Ar -0.6409331327574286 0.6915022069274552 1.797812424862798
Ar -0.1330848659419911 1.126819386830701 -1.142409281728647
Ar -0.664361310249559 2.003401971114878 -0.7696265220749885
Ar -1.348514596711957 -1.688728355358739 0.05117391626743231
Ar -0.3216380844046431 -0.3536679016694469 2.076841393812114
Ar 0.3319286225395097 0.3108228278962351 1.480488557204283
Ar -1.779487991036334 0.2966969340126833 -0.63840097200433
Ar 0.8262344587608624 -0.09610090128239301 -0.2053463685506215
Ar -0.754938294526535 0.2413656782328585 -0.9432629817539959
Ar -0.6838864044414925 -0.9149876930721197 0.3422261698848677
Ar 0.2039325310235358 1.405968208749936 1.274401680558771
Ar 0.00919453219305476 -0.1363686466070642 0.5685806265200325
Ar 0.9709136046938747 -1.407331490522811 1.069002188444712
Ar 0.6561909205465263 -0.983394669025542 -0.8734997121587612
Ar 0.6878317607175968 0.7407023567154686 0.5268081848560102
Ar -0.4727031676030508 0.3801216960645405 -1.956163238531503
Ar -1.726325914187806 -0.672688395502102 0.4250695600859968
Ar -0.9924902263900846 0.07663510321975557 0.1000370430843331
Ar -1.14819898260651 -1.328091189431123 1.202834124330077
Ar -0.1681779508896057 -0.464924010253189 -0.4433525720399429
Ar 0.7486113058714721 -0.641880763577212 1.874217493317053
Ar -0.5016539000116165 0.8080077898584783 0.7228484610832707
Ar 1.021099623718662 -0.3265615464399921 0.8504475811784709
Ar -1.221057183092764 -0.7301499920577487 -0.620611467411501
Ar -0.4281332345812351 -0.6836160689621091 -1.45751843484279
Ar -0.3758424111768485 -1.513365141124492 -0.5323657543708191
Ar 0.3831271021726321 -1.104108503382534 0.2100324693425368
Ar -0.9044420676766963 -0.205944251232076 1.155593016413635
Ar -1.446424884272209 -0.1896390284000366 -1.625250700565025
Ar 1.441083258067647 -0.9876227197692918 0.04579128398547665
Ar -0.321530494649821 -1.892135543807813 0.5778742925048146
Ar -1.234932610155693 1.097136866164581 -1.36626725873792
Ar 0.01493063677239376 1.576569154035578 0.06967394519244537
Ar 0.3407051613128861 0.1243494590736116 -1.190777545007131
Ar -0.9948723215925179 1.094415542923716 -0.2722959060227259
Ar 0.8540187176566807 0.9830162461233488 -0.5845915716407534
38
algorithm=ase_bh size=38 seed=0 index=9 energy=-154.0017067305072 step=10
Ar -0.1166759101097205 0.5434443561709608 -0.2740917262138031
Ar 0.8300272553164015 -0.7159672717939776 0.7316614611140638
Ar -0.8299817021246034 1.083034869013022 1.390470227621361
Ar -0.3761579078857731 0.9055398066067433 -1.227395659490601
Ar -0.6730361174759275 1.945753373381713 -1.138713511997618
Ar -1.057033804236801 -2.440469833055722 0.5698289359634826
Ar -0.2403071445781106 0.3012159085560394 2.403849006284343
Ar -0.6609783357026936 -0.0009929252947388089 1.438196196175693
Ar -1.119048477481558 0.2821094841302707 -0.59324818892216
Ar 1.564916016000795 -0.0923379419016692 0.1752401097144284
Ar -1.47517401834821 1.147999341047673 -1.153770246126298
Ar -0.2777719032625215 -2.207196019133169 -0.2576500600743939
Ar 0.2220819876751136 0.7830036427149955 1.530972672519536
Ar 0.1237302715955035 0.1206726679594619 0.6805893610971462
Ar 0.9597457819305191 -1.809406575902668 0.5848913926638588
Ar 0.5056717348440943 -1.043832245162319 -1.02952603615033
Ar -0.09261749054683101 1.222818100537183 0.5679467817123381
Ar -0.9133813658535631 1.304818584204429 -2.089790601330658
Ar -1.294249970117645 -0.5500937730565492 0.7165715748616391
Ar -0.49387591263881 -0.4331023390054066 -0.02947233102594878
Ar -1.057987923433271 -1.52255360657751 1.282427962261124
Ar -0.2330291181752658 -0.1988645101591217 -1.072922682444103
Ar 0.3737164311217202 -0.3184497152750355 1.674578954473533
Ar -0.9134876948753515 0.4618936496416364 0.4743285502024493
Ar 1.121595226809572 0.2899112585892504 1.115049877265409
Ar -1.483195909365039 -0.7304831548320743 -0.3940505437460549
Ar -0.561371959889128 -1.225611926957603 -0.8094817373331795
Ar -0.8807942971198457 -1.425345503275094 0.2115498175571397
Ar 0.2012029736340905 -1.260959159461662 0.006484902199700693
Ar -0.239595403319058 -0.874135545081217 0.9377532649678127
Ar -1.0946844674822 0.2273924581485529 -1.694483783509929
Ar 1.280502695269958 -1.107058614061226 -0.2174655714529878
Ar -0.106186096876583 -1.948387099472054 0.8281641004229496
Ar -1.613330397980944 2.095551917907672 -1.718729553882528
Ar 0.1877453065006493 1.558860422303892 -0.4800890173719536
Ar 0.5749811490210778 -0.262901541591924 -0.2569595966064636
Ar -0.876925184417303 1.31838775157381 -0.239311354389313
Ar 0.8481669250964682 0.7752144992948867 0.1516315041453973
38
algorithm=ase_bh size=38 seed=0 index=10 energy=-162.1984585768071 step=11
Ar 0.2602357938598811 0.4822559301919601 -1.158504026955204
Ar 0.9319762124124059 -0.572539803335065 0.140842560095313
Ar -0.3658405787813282 0.5960475603314406 1.349026822132085
Ar -0.541830205811193 0.7873826717451446 -0.4646884114239452
Ar -0.6244533894464656 1.876212213210756 -0.4137429577577623
Ar -1.161712601798501 -2.471898852771893 0.6909559601516508
Ar -0.4725922441244421 -0.1095366844274691 2.200627874497334
Ar 0.5313654515268589 0.09146417964963974 1.771914581863659
Ar -1.854357324039376 0.2575552266701639 -1.087183605489957
Ar 1.872625835949172 0.003174053265648922 0.1351080998991154
Ar -1.020889157269597 -0.1984541616150572 -0.543019100246407
Ar -0.5868569401274911 -0.8383345931036672 0.2421525870363493
Ar 0.1257846226553365 -0.2503958143586121 0.8168628420739621
Ar 0.03497261345150859 -0.1044653946657615 -0.2603840944438902
Ar 0.03995308166734068 -0.9322169373654509 1.65938227709917
Ar 0.8558273603300288 -0.4296239067939246 -0.9512704292620294
Ar 1.117961335699805 1.331874079130783 0.353495572591092
Ar -0.3235600060473138 1.396171889830022 -1.372932783946959
Ar -1.447839419893731 -1.50288581432796 0.2189106517777978
Ar -1.629431589811593 -0.4211417097148727 0.3487318360934374
Ar -0.703053918489597 -1.53463527449763 1.077419009375927
Ar -0.2223389839351849 -0.522662762178926 -1.237436030242297
Ar 1.052614334051934 -0.7217337049927478 1.223506352496484
Ar -0.8188441206405457 1.287995062727335 0.5023795617986319
Ar 1.058638794863542 0.3168914775111337 0.8143472876061113
Ar -1.296765023902983 -0.6127326502107345 -1.52357308565079
Ar -0.8756836300193305 -1.272419822494576 -0.7217927002357115
Ar -0.4236466318512311 -1.923730045794056 0.06485593915751281
Ar 0.3076228477448499 -1.327911822070308 0.6538811584027368
Ar -0.7631939160942959 0.2152244874820846 0.4239462131857973
Ar -0.8106036293455841 0.3947706695668117 -1.45314104591352
Ar 0.2049005252919508 -1.173599586522995 -0.446133966127846
Ar -0.8892257797340672 -0.4637877989639053 1.242555563832197
Ar -1.366870265642864 1.261181389798909 -1.002675341333117
Ar 0.1616564913658372 0.7801587197079084 0.392451606827502
Ar 0.9634861053635891 0.4569132672105733 -0.2978111210760686
Ar -1.587897164151767 0.6672727851986693 -0.09254457833215653
Ar 0.3810703562436483 1.381634267708079 -0.5014866284011231
38
algorithm=ase_bh size=38 seed=0 index=11 energy=-163.9195512411921 step=12
Ar -0.3919748507035135 -0.3681279165346493 -0.1506027165989604
Ar 0.5206617727365711 -0.7358200883151917 0.422982228043163
Ar -0.8882090085914258 0.6950764226304149 1.251862032688935
Ar -0.1547638925259947 0.5207669426973894 -0.8069140513629401
Ar -0.4364067702409217 1.963804843245434 -0.6519423417376359
Ar -0.5761015180270275 -1.65683390107079 1.534937541816874
Ar 0.02506185454241799 0.2616232471940411 1.886051660211359
Ar -0.1888431670156676 -0.04793677656647076 0.9017587160523437
Ar -1.088138564720145 0.3255943141354671 -1.403661045577363
Ar 1.191542348314555 0.9467480552019684 0.4114621791502557
Ar -1.125971946520157 1.120000537479026 -0.5909377037487731
Ar -0.06873390742611912 -1.39682722217159 -0.2224889337842205
Ar 0.1585931636263644 0.9777392032435868 0.9526678763220243
Ar 0.4126976089685589 0.288114676127877 0.1139200859538168
Ar 0.2775668885074416 -1.759743290124876 0.777100182924454
Ar 0.5575436707505558 -0.4083999482540862 -0.6874258120606918
Ar -0.5932555056219964 0.6192132678960122 0.1882644446778693
Ar 0.4280018492870702 1.437514651324279 -1.160505473138831
Ar -1.496998198027075 -1.243497401771357 0.9841236133118521
Ar -1.226743906368178 -1.052340272034444 -0.1174021699041584
Ar -0.8283407317019238 -0.5304477032024268 1.631466091478993
Ar -0.4043983690418449 -0.5111191631259165 -1.211254066232127
Ar 0.2485597058116172 -0.8439386446981898 1.495000375906937
Ar -1.617606746097951 0.849375266655805 0.3970186692556136
Ar 0.870359942159988 0.08461782512355337 1.092664216991284
Ar -1.490574281263353 -0.7014407129673895 -1.151622572437755
Ar -0.7805551452349299 -1.540202977584652 -1.020775134971035
Ar -0.8097737280717348 -1.987026742244149 0.3960093266000801
Ar 0.3304565739712135 -1.345366260256578 -1.234123293080446
Ar -1.232658324944953 -0.1974186990464226 0.6480868580346523
Ar -1.356618017626946 0.06436043384865919 -0.3865968927760846
Ar 1.037753887597191 -1.328134607652252 -0.3266620518752055
Ar -0.4973381677932447 -1.01400338416231 0.6911141501683801
Ar -0.5833955571402536 1.287932799798967 -1.535771770443532
Ar 0.2326477893137787 1.317023515533402 -0.09218331894584308
Ar 1.385502326069265 -0.1650163875090896 0.04854149208542551
Ar -0.7346044721417635 1.640882893415322 0.4127705518051999
Ar 1.00826063670975 0.6327259944730695 -0.6918984936488457
38
algorithm=ase_bh size=38 seed=0 index=12 energy=-162.3591183828688 step=13
Ar 0.2510147538244372 -0.118117341002336 0.02682034434644486
Ar 1.099360894566147 -0.122885744592064 0.7538209208042855
Ar -0.8370991127577724 0.608624330536247 1.26890652560022
Ar 0.4433811660936172 1.47506565619905 -1.023552617374896
Ar -0.2895447307997202 1.896660036522099 -0.2746458477380391
Ar -1.251523992195595 -2.252271175792652 0.32046970118197
Ar -0.6329921187816197 -0.2662096013922721 1.920286924874239
Ar -0.4542337092794652 -0.3627461203982029 0.8340977335953754
Ar -1.478792020055229 0.5705673561170234 -0.5083784313280509
Ar 1.267094909767352 -0.2763674467507317 -1.145934292648512
Ar -0.5033246931103509 0.9631924831311576 -0.7838142729031928
Ar -0.2365713755293966 -1.879480952413654 0.5716664584832418
Ar 0.2097662219105791 0.4880771143468982 0.9448140836180955
Ar 0.3229761940682793 0.9790942665103444 -0.05300594627245388
Ar 0.4248456521929329 -1.001245822382081 0.6592600791125051
Ar 0.2956315011166066 -0.749611924330548 -0.8784961901438749
Ar -0.6262092302452122 0.5120795696025472 0.2072704420044826
Ar 1.338140061942116 0.8445421231474847 -1.208502314607521
Ar -1.429240895787489 -1.354075417077904 -0.3106202643951651
Ar -1.484053102672609 -0.3107674333706869 1.216787741480678
Ar -1.123623887468745 -1.240287543640129 0.7489727909999399
Ar -0.5898161768861774 -0.1116108670364498 -0.6893956013824718
Ar 0.4032677735061703 -0.3864266073025569 1.571826333050069