75
algorithm=ase_bh size=75 seed=0 index=0 energy=-360.4873180470126 step=1
Ar 0.8551084327729891 1.00395136875326 1.03056424772315
Ar 0.5151455906929884 -0.7779962140091894 0.6346658400856469
Ar -0.6253415519766696 2.074930501854066 1.441325872177028
Ar -0.5140681235365853 1.391642711494031 -0.3044057721458343
Ar 0.3450168534366257 1.80953005048281 -0.8091893808868743
Ar -0.7539953178236524 -1.73040002849355 1.733063360136723
Ar -0.0666917298613153 1.197870122794361 2.550440022907058
Ar 0.6165943917735991 0.5502803371738745 1.9776344446291
Ar -1.9799256912116 0.04902823340325703 -1.288298990944256
Ar 1.547625778387619 0.2441485196232495 -0.4909074476749146
Ar -0.8765817504972194 1.306494980249266 0.7430541256536988
Ar -0.2807516572454425 -2.412476481386129 1.037078378864931
Ar -0.4310291315694996 0.2591416845573357 2.119341857408006
Ar 0.5682793448434701 -0.319672190309306 -0.5198561907054806
Ar 0.385552888910889 -1.832958418998743 0.4432237337098912
Ar 0.6530596079182505 -1.174235587381564 -1.198726126079556
Ar -2.071279839473221 -1.367166760213246 0.3661528625509142
Ar 0.1002650304036878 1.784295420789824 0.6035231136168958
Ar -0.4845079989749869 -1.298082592056937 0.732302445968654
Ar -1.152802613077228 -0.2312432038709041 -0.6091510842519184
Ar -1.556284100485815 -0.3398311564021432 0.4240366940386482
Ar -1.112470366122103 -1.180150059785448 -0.1245031016341472
Ar 1.278525996184733 -2.319207607853326 0.09689407266249216
Ar -1.936219027860788 2.441211042745547 -0.08302276589838174
Ar 1.621456482825969 0.8913403904251153 1.822869857102505
Ar -1.79089252878459 -1.716972282443636 -0.7634745034100048
Ar -0.3021370261821903 -0.6318360090624886 -1.148489670467581
Ar -0.5432273950809515 -2.138947871601764 -0.02816421809389414
Ar -0.04587779664373487 -1.169162010060662 -0.268187058467312
Ar -1.18339686184125 1.097913028492037 1.762384000049039
Ar -0.9328188245649662 0.1232262992910648 -1.63177964026333
Ar 1.742709558976751 -0.7998777977590306 -0.7935969292006875
Ar 0.3018156589807036 -2.875706763631923 0.1948019514476793
Ar -2.062403592288611 0.4005830879201706 -0.2412834978411838
Ar -0.3366495971426937 1.143516221159443 -1.385935642410768
Ar 0.8721512862085812 0.198787300741453 0.3421535703618572
Ar -1.25237431274173 1.954458236468726 -0.874271553856286
Ar 0.8531225047131301 1.238055306117042 -0.02284713146328397
Ar 1.388616744677872 -0.005188188259270357 2.473770835738775
Ar -0.03801180993104146 0.7277040702761465 0.3793224964156253
Ar 0.3402064889279537 0.1686899662367898 2.937554392226462
Ar 1.634227400252328 -0.5496815845324688 0.334247283249979
Ar -0.8833590847087311 0.2391286775126789 1.111878736499999
Ar -1.635500340070243 1.409834112680834 -0.01411806175080271
Ar -0.2659795108012751 0.3567554950635664 -0.6422763596062652
Ar 1.237520491414349 -0.1124576080623503 1.324737254635999
Ar 0.4960545943127846 -0.5331153739558386 2.042221791018196
Ar 0.3202583545174115 -1.483656572687343 1.469232140203903
Ar 0.6834553157448522 0.7409744778011719 -0.957997836158439
Ar 0.7064452448087891 1.650167699100055 1.89483061432719
Ar -2.245960641653156 1.300855294179199 -0.9154878628397842
Ar 0.8493421929612273 -2.475156982954494 1.155989098667355
Ar 0.1418651550061191 0.1845919542812144 -1.707003467188748
Ar -1.822214664799771 0.7374568611096046 0.8403330673223672
Ar -0.137503471188716 1.077414249326579 1.446638125745644
Ar 1.482473447171608 -1.893180024002679 -0.9240445951579256
Ar 1.321557509817106 -1.475801881805066 0.8823086359180801
Ar -2.435160793194889 -1.012447039032625 -1.463018062950471
Ar 1.016209331909504 -1.267223345342492 -0.1786031442763372
Ar 1.130490629065448 -0.1784304357362823 -1.446057855906772
Ar -1.045236438495274 0.5277817934310283 0.08924107116745961
Ar -0.8927918122591043 2.258572742736885 0.2465982651128347
Ar 0.1660924696279316 0.05873555475338499 1.167955001869336
Ar -1.349646136297778 -0.9149993148774108 -1.394961559986451
Ar -1.714290212323276 1.921739180102917 0.9745823564579691
Ar 0.4084356433717007 -2.099254008144459 -0.6243965629593856
Ar -2.104781388916544 -0.691512604809326 -0.4765518818573391
Ar -0.6388792881597172 -1.680216876118285 -1.020214417799635
Ar -1.44437196005647 -1.032798092153942 1.228598840582522
Ar -0.481400943569906 -0.6805186680824934 1.593539061589335
Ar 2.054364663712549 -1.531568532796268 0.005772712512593925
Ar -1.290521925848199 -2.02519801984027 0.759572693797312
Ar -0.4045348459924716 -0.3100807823265911 0.2579849382937023
Ar 1.052546199464732 1.057364803522001 2.811212297443997
Ar -1.267884484016361 0.8389000676365141 -0.9040210469444662
75
algorithm=ase_bh size=75 seed=0 index=1 energy=-360.4873221916801 step=2
Ar 0.8573306011044528 1.002563998959628 1.029878534609473
Ar 0.5111896259302843 -0.7795241708196301 0.6397459526110097
Ar -0.6202294635995043 2.081425064694814 1.430599742159492
Ar -0.5062992324503645 1.390502293518893 -0.3113787177189754
Ar 0.3565234590761661 1.80306040226062 -0.8138496288939039
Ar -0.7653072254905954 -1.722601473280198 1.73731315693391
Ar -0.0685098613047813 1.20589288797232 2.545934617814049
Ar 0.6137297959488424 0.5532792945723088 1.977765824028247
Ar -1.973976578818353 0.04988972383470826 -1.294983514747895
Ar 1.551518143785619 0.2344686189508909 -0.4862769695968819
Ar -0.8721045268291995 1.310774784085571 0.7351056857756393
Ar -0.2923307331521013 -2.409256744355704 1.045622828612231
Ar -0.435620826329409 0.2672574921464347 2.116905324764815
Ar 0.5700587459588926 -0.3256680760281871 -0.5162341859323233
Ar 0.3782470839204887 -1.834632300646425 0.4518233439451383
Ar 0.653957929250394 -1.183216033650957 -1.191573157238159
Ar -2.076411997526495 -1.359759713542457 0.3643626778191246
Ar 0.1071077410508637 1.784132560538961 0.5964755609644991
Ar -0.4908049800999879 -1.295338704188849 0.7357573924939451
Ar -1.150251735559614 -0.2310174380536173 -0.6120231515411992
Ar -1.557468894496766 -0.3340874265069709 0.4202657371542792
Ar -1.115248398629751 -1.178227144068595 -0.1237055474035189
Ar 1.270517862999333 -2.325640172979125 0.1104955768661769
Ar -1.92467122861167 2.446570058591662 -0.09859817720666129
Ar 1.620693349934814 0.8888870405538473 1.824977872115415
Ar -1.793673020939241 -1.714808306584286 -0.7628594718547398
Ar -0.2992665752647005 -0.6369544804765576 -1.146906780978614
Ar -0.5500731658476643 -2.13885741057345 -0.02162662270389995
Ar -0.04812901665656782 -1.171936190666554 -0.2636565500949637
Ar -1.183222962534817 1.107835334188328 1.754194666745111
Ar -0.9254540040180931 0.1186256992925078 -1.635263184301568
Ar 1.743641704427633 -0.8115041764355958 -0.7842482607731811
Ar 0.2913361290495327 -2.878001829876464 0.2071641177226179
Ar -2.058480805360695 0.4058092272454885 -0.2495754815548201
Ar -0.3259205402200743 1.137897184826598 -1.391161505840796
Ar 0.8734980996130145 0.1944990523487078 0.3449194404904287
Ar -1.240363627248105 1.95408579766523 -0.8859172490731336
Ar 0.8605837039596276 1.232185217272411 -0.02444707663745512
Ar 1.381475097783309 -0.003918848197592665 2.478690297829482
Ar -0.03463473651056435 0.7273110678395781 0.3762127243642123
Ar 0.3323408832718376 0.1765935605511545 2.938223261890744
Ar 1.632718495244038 -0.5567624482686355 0.3421949026589524
Ar -0.8846983172798483 0.2451783790189052 1.108096851388177
Ar -1.628276504561553 1.414277234753536 -0.02488498808500853
Ar -0.2611085634141612 0.3534153569213897 -0.6445714506321234
Ar 1.233815842057156 -0.1151454422924256 1.329766691211254
Ar 0.4878822363176042 -0.5292379891068943 2.04626178985998
Ar 0.3106811722290925 -1.481151085598513 1.476244996570187
Ar 0.6908900727948942 0.7327658973551273 -0.9583262326324864
Ar 0.7089951132675671 1.652337186710076 1.891497554393711
Ar -2.236310396034548 1.30420796445283 -0.9277661590522518
Ar 0.8371034897121832 -2.47580145293685 1.168694687520686
Ar 0.1496709368654589 0.1757140571086964 -1.707110480245835
Ar -1.820561196319239 0.7460823516268322 0.8314865754065766
Ar -0.1362626162898798 1.081934565766074 1.4422116498727
Ar 1.479614040779775 -1.904296690610661 -0.9113643826671405
Ar 1.314124807664369 -1.479327316076464 0.8928155995468841
Ar -2.432710291438872 -1.010432543454387 -1.467194313711159
Ar 1.013276759831564 -1.273652783606126 -0.1698926874149412
Ar 1.135886331163214 -0.1902756518230122 -1.441119368447194
Ar -1.041932985661775 0.5302512188557669 0.08379746577550082
Ar -0.8830528266886769 2.261097873162816 0.235106670047007
Ar 0.1637509352102566 0.06079074312352962 1.168440602034142
Ar -1.347044703990521 -0.917040448313946 -1.395852381779503
Ar -1.708166670126935 1.93015740895372 0.9616335736218183
Ar 0.4038251563239755 -2.105128389291731 -0.6146508793222155
Ar -2.104463673766179 -0.6870073313170778 -0.4808205110022937
Ar -0.6405099501886171 -1.683560716387058 -1.015777064404596
Ar -1.451424816499743 -1.024571099061438 1.22777997692801
Ar -0.4883740667256952 -0.6742394599540703 1.594414688034274
Ar 2.049772038658168 -1.541512592382421 0.01891414997177359
Ar -1.299640397401373 -2.019314106978495 0.7631116338906367
Ar -0.4051840407373289 -0.3094288877703075 0.2579631136436091
Ar 1.049354897192397 1.061290988940965 2.810971149666589
Ar -1.260101431228276 0.838452360947465 -0.9114337854510878
75
algorithm=ase_bh size=75 seed=0 index=2 energy=-361.5382613441083 step=3
Ar 0.8749262874138098 0.8981794500957394 1.058199661360556
Ar 0.3914053474338358 -0.7739717909130182 0.7997387586422212
Ar -0.5501393357892604 2.11216358095405 1.324019720093358
Ar -0.4990224633899827 1.369128738357435 -0.390723593352796
Ar 0.4253696014387265 1.894903273115526 -0.4937155297049644
Ar -0.9047051636430907 -1.719263092212032 1.61529099422476
Ar -0.00326712286973628 1.086942649818107 2.629848572648554
Ar 0.5894497960808032 0.4397413419257752 1.980962010198122
Ar -2.065596607425079 0.2680041678897258 -1.412370217453726
Ar 1.464247710796632 0.2976395909548136 -0.495848153154004
Ar -0.7464813934760959 1.229872137190039 0.7014126323621709
Ar -0.3057946068172606 -2.402236700198091 0.9834861026895266
Ar -0.4918830223315436 0.2589814608054911 2.056263811259766
Ar 0.4566652062212873 -0.2317508751713911 -0.5603945124463082
Ar 0.4382639405087146 -1.783992879062055 0.4433211636057748
Ar 0.5338222980025565 -1.13666637583097 -1.18918251088971
Ar -2.095240385291128 -1.304340597552971 0.1340102719335156
Ar 0.2227922202395859 1.697319667092016 0.5876496332923962
Ar -0.5029826784993551 -1.343861015591169 0.6710227203471307
Ar -1.346625502666029 -0.1566449945678816 -0.7223790629105541
Ar -1.769691787659859 -0.2496031168388913 0.2856326839170432
Ar -1.091601520901549 -1.053657682758391 -0.1746381268541914
Ar 1.32280606722445 -2.267894242166019 0.1115420117005582
Ar -1.776883105132786 2.522070178413803 -0.05180574764536336
Ar 1.632963089940646 0.6942986955659382 1.860169737759952
Ar -1.47988750905186 -2.008218669721867 -0.5164180565202419
Ar -0.4650294760501313 -0.6518881927478495 -1.104764352777743
Ar -0.4845136746770754 -2.143485371898387 -0.06360890545588316
Ar -0.02028273294736658 -1.153292126792599 -0.2659968814712023
Ar -1.175260832047321 1.09176265101805 1.676208335288528
Ar -0.9390049850094809 0.1735358415478625 -1.688668558520185
Ar 1.915733638809156 -0.6814791316760022 -0.6411689697390784
Ar 0.3623566374890081 -2.841113126867676 0.2068371213106456
Ar -2.123531642265061 0.5753866180610141 -0.3359811943570312
Ar -0.3306861999997438 1.144588633442739 -1.466924965476051
Ar 0.8805968864921038 0.06369716307851263 0.3646873597301959
Ar -1.16691522317458 2.053649799333741 -0.8966693540562247
Ar 1.064963484114726 1.167661060795691 0.04445824851605761
Ar 1.318616330349658 -0.202217932997958 2.472843500076941
Ar 0.0633783399539046 0.6945810473647552 0.1795841110459478
Ar 0.2533924127767601 0.004079881235118406 2.897672145587725
Ar 1.82648472131373 -0.4296153485858549 0.4481465276955031
Ar -1.026966206828525 0.1577228944634302 1.052119121911875
Ar -1.535898579633398 1.475963184463237 -0.04435891626742498
Ar -0.405991370512411 0.3466144767012406 -0.7362776186202896
Ar 1.203298021367416 -0.2142083931557839 1.344222008297371
Ar 0.4269362900497614 -0.6227194972126925 1.972085314506697
Ar 0.2163222264553084 -1.583978291542189 1.500893188170776
Ar 0.5416776009571057 0.8344523492517458 -0.8418313494538688
Ar 0.8507574444452468 1.505908860488078 1.995457073456648
Ar -2.197478765713091 1.55571195818718 -0.9057020522287597
Ar 0.8729930979644598 -2.437005621367211 1.160671534257913
Ar 0.1840234564976511 0.09377949876706441 -1.60577381080746
Ar -1.838924306718645 0.820077013608823 0.7683663435894099
Ar -0.0816858828883931 1.156726793046353 1.531159866565891
Ar 1.462058189296619 -1.663933834775546 -0.8284038574643223
Ar 1.293065960098269 -1.34179801796727 0.9738382188170679
Ar -2.43950702318876 -1.596402600584321 -0.8842952148593762
Ar 1.032926919883327 -1.010368028908914 -0.0664213175959051
Ar 1.193884584122495 -0.2853596560549754 -1.37965999589047
Ar -1.082910686697557 0.5212348089124905 0.03399341772304953
Ar -0.7351336352488264 2.223108388529695 0.2217972756280363
Ar 0.05312204987227068 0.1709979375795068 1.10793584352328
Ar -1.489010396152311 -1.113690439225663 -1.197255777335077
Ar -1.572001988792239 1.911571160881808 0.9488074292747066
Ar 0.4688438748506339 -2.074056018479888 -0.609409975187676
Ar -2.344233251028466 -0.522534965797489 -0.6314494311826407
Ar -0.5300889290297459 -1.721966859565438 -1.058583561710693
Ar -1.450284138940873 -0.960546054780561 1.002128622697711
Ar -0.5160963751579061 -0.685049554164178 1.497304788783048
Ar 2.038613492563982 -1.457097980115313 0.1356166866405774
Ar -1.352957319020909 -1.997360953992882 0.5978603421483135
Ar -0.4178879391468139 -0.2932493759096517 0.2255408636464628
Ar 1.072919973894225 0.8205916205039664 2.866277970448429
Ar -1.300758736580135 0.9325337077571418 -0.9796134331729496
75
algorithm=ase_bh size=75 seed=0 index=3 energy=-363.8195533798676 step=4
Ar 1.112182863939014 0.6804718961763728 0.7922686068429017
Ar 0.1228218685628642 -0.7841863943311326 0.976613857135967
Ar -0.2367126066479885 1.929576195048239 0.4302880309723972
Ar -0.459773045709146 1.239989754807775 -0.4463510838021509
Ar 0.4434606333213603 1.514086467275245 -1.002062836156589
Ar -1.051780186199723 -1.950606566882607 1.659378182922042
Ar 0.1200428835048466 1.083903142896693 2.388629275018972
Ar 0.5405152107586397 0.3304264489135464 1.710509346075625
Ar -2.138482552991455 -0.0007937207162903304 -0.7132575631446266
Ar 1.359662322587962 0.1514970997531905 -0.2219883572305892
Ar -0.833428897567274 1.016009471793472 0.5946884401305097
Ar -0.3057442563816048 -2.520204760873799 0.8860850299174723
Ar -0.5176359357804571 0.2208147536751938 2.055187445532961
Ar 0.6262389146944802 -0.5625891565056668 -0.6659763429454804
Ar 0.3422472771775484 -1.693654726575203 0.4801834184672453
Ar 0.235183084703903 -1.061387996367868 -1.543556398891847
Ar -2.316158578030609 -1.716030553946221 0.2254382119180967
Ar 0.81705739005392 1.762896831778149 0.7302079693686963
Ar -0.6472814833030852 -1.497505238224425 0.7732276643619954
Ar -1.198354014495233 -0.4858117379282807 -0.4615508456012142
Ar -0.9877580743670823 -0.5161916153235123 0.5822609842952372
Ar -1.314415688944359 -1.429518204014152 -0.04013357475529667
Ar 1.388891122382322 -1.951248144192398 0.2992564655969351
Ar -2.330169154745365 1.89481279933881 0.2501209323219082
Ar 1.705903353887784 0.4234933768632337 1.662672501471072
Ar -0.6632248848641823 -1.317513626512939 -0.9339673065558424
Ar -0.3441642416201008 -0.2483342786858964 -1.048331252829296
Ar -0.4907487166327396 -2.111144395297136 -0.1261226200419868
Ar -0.2122992242854541 -0.8804300598941577 -0.05830934911657131
Ar -1.025377171910021 1.176819952659869 1.654617860271397
Ar -1.170159883039107 0.5137717615379197 -0.8614714328456715
Ar 2.053853804672638 -0.685918479793945 -0.1975427198057136
Ar 0.5000159628531121 -2.633176858349697 0.005702292887134155
Ar -2.487612101745391 0.8242624252253121 -0.04169405396311583
Ar -0.285025827883337 0.784340420738724 -1.451440657541673
Ar 0.4678276040501169 -0.06408770492717199 0.2983703391336249
Ar -1.9745906274389 2.11708371304291 -0.7817806502518234
Ar 1.131049201225739 1.218859230535488 -0.1863956180331008
Ar 1.2296707380367 -0.3837729815855712 2.238521962389564
Ar 0.2085187164345317 0.9559828529886047 0.3162130281175381
Ar 0.3008604436836061 0.05631869664882553 2.78867603938338
Ar 2.009225950097763 0.03564346713975484 0.6514096752782327
Ar -1.349861376770595 0.19754679681549 1.284880593604356
Ar -1.511454204334535 1.320182412776916 -0.1897312981068802
Ar 0.3777019010655031 0.4908650747204069 -0.6343050353970147
Ar 1.118598815129465 -0.3536161595158636 1.137980893974948
Ar 0.2198401557144564 -0.6996951940043827 2.019315300083759
Ar 0.02396876899084551 -1.711441534831507 1.589262705594844
Ar 1.286884773904853 0.7389051042948597 -1.175175487444568
Ar 1.027037291318573 1.316340962823674 1.710515198029886
Ar -2.113281850263649 1.047233630299101 -1.06916649616031
Ar 0.7775180142733538 -2.464942505680893 1.107461635223205
Ar 0.5650414737439062 0.01837422312000643 -1.608367603096923
Ar -1.891287236866298 1.083323146066898 0.8819239471733181
Ar 0.005034976672525444 1.231871343920929 1.315975155704273
Ar 1.400160549639716 -1.378634124173787 -0.7205346282475034
Ar 1.014896495671845 -1.402006137651147 1.293095899690397
Ar -2.0315006557906 -1.105969320185219 -0.7963425127100897
Ar 1.056864744234497 -0.9331659169724146 0.2319960289580899
Ar 1.553944694973244 -0.3589733292137769 -1.180565673544548
Ar -1.548589575297705 0.3161340377339242 0.1813336734946956
Ar -0.9441724679726555 2.233042783231573 -0.3633010913157574
Ar -0.2825345956243303 0.2048356147900406 1.014628651195936
Ar -1.376475883246747 -0.3750486720695989 -1.504853832674725
Ar -1.304798275968608 1.994404097344156 0.6837877154549624
Ar 0.3668079486122133 -1.640710852444001 -0.5978499590761125
Ar -2.058117136168727 -0.6316327118871738 0.2180522220825004
Ar -1.457073171133579 -1.471305454233934 -1.668317030793071
Ar -1.670279989366814 -1.254861467283505 1.035887075270059
Ar -0.7923199168469658 -0.7877539732726093 1.608481550769691
Ar 1.950846895774497 -1.066448406835159 0.8409553009942716
Ar -1.384736812799777 -2.286156419797299 0.6298551385589231
Ar -0.495259332855819 0.2113874459497495 -0.06265042966546233
Ar 1.165624228076532 0.6826487111496616 2.589905161078812
Ar -1.126526742010383 1.546976110552264 -1.243938924190291
75
algorithm=ase_bh size=75 seed=0 index=4 energy=-362.9737903465697 step=5
Ar 0.742893605945307 1.110199213319451 1.778186302188166
Ar -0.05582473794777636 -0.2595370946891894 0.4378325994895846
Ar -1.009797903904994 2.121949648753564 1.431952930966834
Ar 0.1993638308538297 1.319384489805192 -0.4325686363792025
Ar -0.542480083154773 1.447914138444971 -1.275366211467102
Ar -0.9707875358346076 -1.44697642228209 1.814088855201636
Ar -0.09464614643699935 1.226712466250916 2.504146849076046
Ar 1.164485455899045 0.1153909698376617 1.658542461203145
Ar -1.493810803887615 -0.124238340958987 -0.9521524785414631
Ar 1.688350988402149 -0.03856020981809374 -0.1050647722996703
Ar -1.138645645856579 1.269896676830432 0.76711974764187
Ar -0.6302576178139683 -2.034292952655953 0.9504394347894554
Ar -0.6836078124269173 0.3937072026558417 2.093722936779041
Ar 0.4177998254867033 0.1090897765049291 -0.4428494237262738
Ar 0.09884115445909995 -1.356500785992454 0.5248762502180234
Ar 0.7940593958547341 -1.750852986582007 -0.169647885137119
Ar -1.971242205676837 0.6040093113655979 0.9749423567247814
Ar 0.6168150948419193 1.312391081077944 0.7144764578419359
Ar -0.7640196936137431 -0.8740798019796429 0.9188917521736204
Ar -0.9915070574726133 -1.097891530415481 -0.9654748212392289
Ar -1.698151548361265 -0.4013002275571343 0.6368455189232365
Ar -0.3559421883449386 -1.948403185836152 -0.98729708258385
Ar 1.575640885101981 -2.318466033234519 0.3096131894047939
Ar -2.484455797699919 2.309303109546816 0.2794127374463093
Ar 1.777177131969968 0.888523932150722 2.127002827995801
Ar -1.512920444547545 -2.000919268127185 -0.7362046691904262
Ar -1.171355292494214 -1.741353794197794 -1.800426599918821
Ar -0.8434440900236709 -1.511621917427203 0.006346519506532798
Ar 0.03533697652475872 -0.9983665218897858 -0.5064385884762981
Ar -1.399368174975575 1.126713502056686 1.795797831313264
Ar -0.3961826036873387 -0.2745437751630221 -1.154539063207759
Ar 1.374207329265581 -0.827842711863082 -0.8113636735198816
Ar -0.1328700805926842 -2.330362246836836 -0.007689489978974551
Ar -2.275623200902111 0.06922092805925043 -0.1934365653104883
Ar -0.9252703553899259 0.5033928064128933 -1.680696044657271
Ar 0.8666402685775392 0.2554417204422154 0.5760013704105952
Ar -0.9105166555405306 1.516638291941782 -0.2479711350621374
Ar 1.19119122607738 0.9476284684234145 -0.1756827560474105
Ar 1.393454597887927 -0.001764363849670323 2.7195959171075
Ar -0.2498763879733016 0.7865956142564217 0.3862654339773517
Ar 0.3514242107317024 0.207021105261023 2.391780476302015
Ar 1.644404120632522 -0.485067801057301 0.8957543381269877
Ar -0.8933595284412157 0.2297255382080616 1.036800669150798
Ar -1.379432853620436 2.265970287738993 0.39404547286313
Ar -0.1489189272008648 -0.1163641643403222 -2.196107492958248
Ar 0.5822359736968039 -0.639788439859154 1.180426812825426
Ar 0.7666869836246818 -0.8040292647588165 2.221599175709964
Ar 0.1504635620896247 -1.553580677716567 1.591880321350909
Ar 0.2113509215748455 0.6156320200610846 -1.391036869152975
Ar 1.607371757625067 0.8967390819777984 1.009099519353467
Ar -1.581095443830879 0.958410479464653 -0.8945959511340561
Ar 0.5030513363390886 -2.339129696908416 0.8604929500776745
Ar 0.5951005226043199 -0.4671957632568631 -1.442358356380124
Ar -1.994430804679136 1.335541457199977 0.08039033140169603
Ar -0.3096608983933005 1.270125329102493 1.434596700902216
Ar 1.670749939132202 -1.906574497719523 -0.7857876931507369
Ar 1.15293963104062 -1.487053826280334 0.9029334435447951
Ar -1.992164209184743 -1.080765983033855 -1.351676024210684
Ar 0.8747962439866146 -0.7195910010506886 0.1306364303668278
Ar 1.277673838929061 0.3026721807560108 -1.079302975939899
Ar -1.335345823424949 0.4868985180783413 0.08337928143756587
Ar -0.2842877927318021 1.918180540760732 0.5395202807685364
Ar 0.1318626523668766 0.3218062185757368 1.338741520059111
Ar -1.147622992688985 -0.5791475947132221 -1.915006027207283
Ar -2.049212892558844 1.734046086896106 1.130616574649878
Ar 0.6674201997643545 -1.563476837560689 -1.231021124405844
Ar -1.817920316729368 -1.005798044443501 -0.2559320991490394
Ar -0.2134957523524268 -1.161218481601906 -1.751802247554239
Ar -1.401693651465039 -0.4209103793295871 1.721043144218625
Ar -0.2768535039778898 -0.567227621000687 1.83743883633485
Ar 1.837424908122698 -1.234196803471226 0.08816195426896098
Ar -1.627155451675284 -1.503920817726297 0.7843091930282458
Ar -0.8850805432566669 -0.4409505799146385 -0.1356765143620496
Ar 0.9460643864382517 1.011159109683854 2.860290658207509
Ar -0.5701088085504857 0.5744940186449812 -0.6160763521681294
75
algorithm=ase_bh size=75 seed=0 index=5 energy=-359.7030503554235 step=6
Ar 0.7367217962541313 1.324666986824294 1.056677565175606
Ar 0.7158590728569408 -0.7611214521277143 0.1318492461241474
Ar -0.9676924196039528 1.949152126284825 1.514546011084682
Ar -0.8620112617985488 1.506940986153613 -0.3572038313979453
Ar -0.02501529492427218 0.8419983537598162 -0.5176441800549985
Ar -0.8074951187997798 -1.005102687574256 1.602657268804063
Ar -0.6459259357302374 0.9775470404510652 2.193762391667409
Ar 1.306985116313044 0.2757875360382591 1.521399816507029
Ar -1.860973189235863 -0.1138528166725943 -0.5271166365823546
Ar 0.7911608212181911 0.1583602644451506 -0.4910659338422324
Ar -1.364708428408565 1.418057480491993 0.6058557518326724
Ar -0.5250138953326705 -1.901427249565464 1.044959805867071
Ar -1.00568887714443 -0.05729586131455922 2.12504999508002
Ar 0.9908301868023431 1.132076738583707 -0.04750484138683413
Ar 0.2164102738596435 -1.724160315886215 0.2770896114759895
Ar 1.033003760791487 -2.539237405278586 -1.096600420344753
Ar -2.266575570256633 -0.6040342727447285 0.3982739936315788
Ar 0.04192144472856462 2.281096800872421 1.056949392421369
Ar -0.3036194666361619 -0.8892364114353024 0.6578698128816495
Ar -0.9235303343778644 -0.6761805011577326 -0.7551203761739568
Ar -0.1855098469284412 -0.1827262369559357 -0.1247001558550063
Ar -0.03791658159337634 -2.186675169218679 -0.7218171214566463
Ar 1.523749437297467 -2.781324414916787 0.7137860883982544
Ar -1.774998777276942 2.083480174163149 -0.182197172889325
Ar 1.109148219532055 1.179995176399718 2.094335188784045
Ar -1.747502837457996 -1.233451418915476 -0.3178848073828004
Ar -1.034271931760262 -1.72100668784328 -1.075123925869108
Ar -0.7738120516980316 -1.576258171747055 -0.03984491170950854
Ar 0.02458208540467405 -1.115590767016019 -0.6324965322141156
Ar -1.357324187368147 0.7243839091755804 1.416820615820986
Ar 0.2590795113421692 0.5441789825417568 0.5027509940623474
Ar 0.9884468691625139 -0.7383038356162379 -1.027631213038267
Ar -0.3667947751295436 -2.633391092391601 0.23545577238879
Ar -1.860498473816258 0.416156640372036 0.4926657594750029
Ar -0.3019909064006588 0.7541016520646661 -1.619492522186426
Ar 1.298379647938193 0.1876835230615658 0.4438919755865592
Ar -1.247408387401803 1.270738029257777 -1.351838912341397
Ar 0.6514726022689629 2.008738294562444 -0.5866993878851298
Ar 0.8368424746476876 0.1574554723432489 2.53068418510044
Ar 0.03103474743298333 1.603796158904305 0.2265470016101781
Ar -0.2311546451877358 0.150651649538152 2.855404590422718
Ar 1.731735436914611 -1.017878177240577 -0.1766529845387849
Ar -0.5374456751186927 0.03870408842922138 1.140218242488286
Ar -1.801095897065939 0.9913316766942998 -0.4099632501432429
Ar -1.010315631688995 -0.1260361231188846 -1.710861295110657
Ar 1.500640460782879 -0.7561740682572126 0.9278620679350307
Ar 1.09411290001517 -0.7375103981317183 1.93978406777222
Ar 0.453126657038692 -1.358596270177739 1.285837463070282
Ar 0.751554555123864 1.050872864263825 -1.206957235417354
Ar 0.1303422338679536 1.674065081594047 1.923971413267827
Ar -0.9428826192900257 0.3961720653710725 -0.7711237173614656
Ar 0.477488370378137 -2.450665643593221 1.030933165133995
Ar 0.004327798233997435 -0.1643233130796357 -1.175470129957628
Ar -2.427156096636719 1.399636457010428 0.4342475659565326
Ar -0.3958391836118873 1.158656983811171 1.101866547586519
Ar 0.7328046244993702 -2.6350127344556 -0.03385434230045391
Ar 1.240847423612039 -1.735015172227452 0.5618714721626153
Ar -2.698180190260151 -0.8052909506333774 -0.6536033403393737
Ar 0.9224957617554317 -1.661750601447282 -0.4823963522975298
Ar 1.690829638625089 -1.602712444015961 -1.216870539881128
Ar -0.801249539223381 0.6070914179448276 0.2605028475038734
Ar -0.8285423594729948 2.321538251188539 0.4020170630218622
Ar 0.2497200022328666 0.5629732764388422 1.717562002608669
Ar -1.787722700732365 -0.8765244442347212 -1.366852321375225
Ar -1.85688631862775 2.326840527514701 0.9086596024303856
Ar 0.5361743516137132 -1.623341786578036 -1.500194681949963
Ar -1.173805459179613 -0.4129741558561094 0.2559798725404343
Ar -0.4009026502918048 -1.055919060091312 -1.66026320407433
Ar -1.601815268740299 -0.3365776089031862 1.250478041556624
Ar 0.03289561454584616 -0.476672543649534 2.008179213795984
Ar 1.789053618610857 -2.248611857436667 -0.2633338689032038
Ar -1.453719377576692 -1.325804010772038 0.7694582016220182
Ar 0.5128641039900357 -0.3014612687495128 1.075440906857384
Ar 0.2928061929605683 1.089705831553692 2.818745412674989
Ar -0.2076209543422274 1.733259776370432 -1.183729117115
75
algorithm=ase_bh size=75 seed=0 index=6 energy=-365.1432875046586 step=7
Ar 0.4640384372102362 0.8436715489041727 1.265717270486129
Ar -0.1535430824089697 -0.7488027160089999 0.9501354384012797
Ar -0.1651658185351035 1.677174505458002 0.8167207653454264
Ar -0.5315461803374327 1.595057234611406 -0.2060470936557335
Ar 0.1813581772252779 1.937719974168638 -1.025632125542564
Ar -1.670982351843035 -1.690138617925061 1.194184557033076
Ar 0.1557129561038535 1.627528407134623 1.914384070937287
Ar 1.368105336606122 0.1506371299286722 1.332476972791781
Ar -1.651041781050845 0.6884584453353749 -1.235664204334205
Ar 1.614982223405498 -0.3282113846102771 -0.7959732517969169
Ar -1.071972821385325 0.8119844534117326 0.5088986869925834
Ar 0.5929339752844096 -2.715047524732634 0.7415488688822129
Ar -0.1959260597521179 0.5720321296744333 2.166062696232883
Ar 0.9008547497033376 -0.7379318095311201 -0.1126574271574295
Ar 0.2262647664131449 -1.709737435250494 0.8945336311284887
Ar 1.225873536477369 -1.397027413340119 -0.903281790317422
Ar -2.317368314875938 -0.8322917893613216 0.8819159274967889
Ar 0.8777769804642042 1.854945331380515 1.034545897961878
Ar -0.8018955990259303 -1.573760016171963 0.5697850048699706
Ar -1.597403799122204 -0.1309051091448377 -0.5481911372758708
Ar -1.543914283495936 -0.9994346383446465 0.08659449048879013
Ar -0.1664105163133622 -2.297589875199243 0.05106348463795643
Ar 1.271624743522896 -1.90882546445168 1.136669204524598
Ar -2.113611412667377 1.045426270524495 0.6670055040229756
Ar 1.980735402619293 0.2614911893217514 2.210876916443369
Ar -0.9060744200714872 -1.711558211623465 -0.5252685109657705
Ar -0.6279222993740937 -1.320086757811218 -1.558518890941486
Ar -1.728560449700953 -1.113350866051082 -0.9959624015311639
Ar -0.05724927802182593 -1.155411588449874 -0.05545079595325063
Ar -0.8356164058516846 1.217465648003706 1.516959044376424
Ar 0.1428281309863366 0.9031919180924539 -0.7627972153541368
Ar 0.3122830788029246 -0.8012051292051603 -1.123488614378453
Ar 0.8445673167381085 -1.834156849128997 0.03622663169292432
Ar -2.391115791222254 0.5547159184889831 -0.3323068995735807
Ar -0.9297726832429136 0.6581735338486058 -2.087509997015784
Ar 0.585355269107124 0.002589673900895668 0.5922073909106499
Ar -1.584237683384036 1.297514320994366 -0.311602298876104
Ar 1.096760022892963 1.25855684822688 -1.080947152927157
Ar 1.272175902424491 -0.6139741873028042 2.110783605999807
Ar 0.6264775588856548 1.548361834018995 -0.03120641608882723
Ar 0.2960103467871581 -0.3878186684676074 2.674375354867502