75
algorithm=ase_ga size=75 seed=0 index=0 energy=-277.9178483656908 step=1
Ar 0.783093933161277 0.829791188063039 1.320884951694112
Ar -0.4111183863480756 -0.550542409995375 0.8165222316719599
Ar 0.9291084710561944 1.600009626316826 2.11983614510613
Ar -1.219640436296194 1.336413733072923 0.04833873232295419
Ar 2.242091971915655 2.443484943537238 -2.078697600929035
Ar -1.462715029708144 -2.883995180197298 1.765934757834442
Ar 2.252030319396798 0.3498889498113759 2.87882900956565
Ar 0.9660601592677458 -0.09644505435561011 1.833817285691456
Ar -2.720094219568368 0.8314655350066659 -2.242962310983861
Ar 1.933850789979035 0.3507402596347987 -0.9888000236130123
Ar -2.138291414111838 2.002966004813286 0.1352885098657763
Ar -0.3741224916863949 -1.537294339565102 1.327873380375392
Ar 0.4901402126681256 0.6508675853857985 2.430974955982082
Ar 1.691792155148722 -0.5582430178638662 0.2771510030336731
Ar 1.04281540156932 -2.198501484255215 0.5540127866927922
Ar 1.788521257754429 -0.7181891446199544 -0.8257657403144734
Ar 0.007053756080870573 -2.383539340612175 0.7914346563360897
Ar 1.394523924267854 2.506526256760427 -2.880451629445588
Ar -1.174041994102004 -1.775813579436678 2.022251578549188
Ar -1.992347758586872 0.06038347829008298 -1.809111764154817
Ar -1.051201751933365 -2.238616318690261 1.017332177776322
Ar -1.673429097346702 -1.891892236297809 0.2254363834077609
Ar 1.320031057514837 -0.9390811651233817 1.239001092129995
Ar -1.819547323692029 3.063912077866106 0.2935226051265286
Ar 1.675650376003238 0.1862218248115809 1.062029074542046
Ar -2.47691270697158 -0.9399377109632405 -1.865128456781637
Ar -0.7762836077411037 -2.606722955327465 0.03735972832724566
Ar -0.3497849278649486 -2.513487674697601 1.83864503836085
Ar 0.4251725622758148 -1.279579643595619 0.6115005678724348
Ar -3.392579061073549 0.6271213786267582 3.615187613666112
Ar -1.802667975414867 0.5274552634713234 -2.800923725124216
Ar 1.14377598449324 -1.379763123766397 -0.1882830807544358
Ar 0.6561139254975772 -1.867813894705257 1.558581385221159
Ar -2.519700784461996 0.7788734425194012 -1.15066331613502
Ar 1.234382957525897 1.900694338806771 -1.900644023358136
Ar -0.1279760203970272 0.7556356614901925 0.7140763275701327
Ar -1.209750430574418 2.38667809733447 -0.3596771555612631
Ar 2.435652339890104 0.5006743244970219 -2.06774231574348
Ar 1.063189988113546 -1.088094100588741 2.320262692398843
Ar -0.1314334151029104 1.282723816987526 1.728788885710026
Ar 1.234417667556371 -0.09528372108884174 2.873331383786757
Ar -0.1448189317087512 0.02033115078954483 -0.0811402294710019
Ar -2.047319025456366 -1.98919967595246 1.313659763237901
Ar -1.83346967174558 1.605549550569954 -0.8567447077319489
Ar -1.343755818925687 -1.156095679740314 1.067372667046174
Ar 0.6476815133875817 -0.1704659621741446 0.7512063868395945
Ar 0.3176440806261812 -0.814006770525562 1.584013590439389
Ar -0.7370715852086407 -0.6953191708642661 1.914031700762961
Ar 2.209565267269455 1.42066191417572 -1.500673816574823
Ar 1.635195612137412 0.7235636643343799 2.047194863954168
Ar -2.609747758648198 1.775866855289802 -1.64893538519627
Ar -0.06454703287616434 -1.505639749939016 2.366765880578417
Ar 1.335374902352292 0.7695978742183036 -1.925039422579496
Ar -2.922031273573332 1.658979968103357 -0.5850209878876244
Ar 1.319510350014843 1.014506138809635 3.053298580938077
Ar 1.940432124307403 -1.578789375318315 0.6246475493935602
Ar 0.2416494793723818 -2.064858790833552 -0.2200415049867949
Ar -3.492602812945768 -0.8366712136523041 -2.334660718882358
Ar 0.04139738367009758 -1.008162134588718 -0.3864105195031491
Ar 1.96404724262396 1.488111514521636 -2.625438812040857
Ar -2.251156016401755 0.9133748477669718 -0.0801732814200956
Ar -1.218939407911053 2.216510344739035 0.7454983710049343
Ar -0.08236663314563138 0.1628398866491083 1.628826735603775
Ar -2.650164345079487 -0.1921221810728706 -2.679569127688262
Ar -2.237953301090913 2.47176767216672 1.145750396070127
Ar 0.7903257558282168 -1.0819076655974 -1.184164068649029
Ar -3.099784682820815 -0.03090434001910357 -1.658192391780675
Ar 0.8667783201882948 -0.2974712609167446 -0.3597019251225315
Ar -1.722426611611157 -2.971607496183039 0.6321978350848356
Ar 0.183577413069484 -0.4145849248695079 2.572443810694359
Ar 2.406722457812801 -0.6688762879553795 1.101439436469138
Ar -0.6695843317762102 -3.252314282102101 1.002848891355012
Ar -0.6182181647085583 -1.535073041147199 0.2909669185164679
Ar 1.973306924820935 -0.3929645099893653 2.070213357861332
Ar -1.716247103469975 1.134344313401303 -1.857034893227222
75
algorithm=ase_ga size=75 seed=0 index=1 energy=-274.8084692300557 step=2
Ar 0.02762429800869012 0.9624094346691957 -1.479883465665103
Ar -1.388085396719291 -2.927851975069628 -1.077807175154728
Ar -2.161128325015095 -2.235939766622829 -0.7541363568698719
Ar -0.6355291974480698 -0.8260825519573711 0.9352121093924362
Ar -1.153520020182385 1.232924187640936 -1.546244926143537
Ar 0.1713124869169351 -0.9622472954236369 0.2397479209903506
Ar -1.882017112487291 -1.304828152913544 -0.3186710208318189
Ar 0.07011823142482021 0.08217980535483628 0.7846394730492481
Ar 0.9082068652131636 2.643954412846449 -2.562734329201046
Ar -2.467697712995767 -1.039771834711908 0.5644881711798602
Ar -1.508618336146811 -0.5650682058447176 0.3714916387445938
Ar 0.5563442377741291 1.822873328477786 -0.989077772685765
Ar -0.2159556456494386 2.461634455254449 -2.529777216410646
Ar 1.676890247220503 3.383477055826757 2.272951425012326
Ar -0.4300685088212502 1.510947074425864 -0.6435743621945417
Ar -0.2034509555528213 2.582671301518709 -0.6639517754804699
Ar -2.155106516956548 -2.499651437149873 -1.811504518454519
Ar 0.7890916827334146 -1.835340865770035 0.4588964712479395
Ar -1.40702558106421 -1.56394809322758 0.6804551918068344
Ar -1.737668547980878 0.8746997551423187 1.571463268333739
Ar -0.554906530167345 -0.1952993310913762 -0.0323965601109298
Ar -1.222725310351124 -2.219628834316967 -0.206137279308827
Ar 2.39842922595029 1.661212471874982 1.928367142946281
Ar -0.6438744755115305 3.038326295231268 -1.627682876511036
Ar -1.47121431463345 0.3587286752929359 -0.09494476805123325
Ar -1.478645724794626 1.328604898383838 -0.5171451347291115
Ar 1.322770788929173 1.614285827248172 2.212787664120343
Ar 1.383723801033172 2.18114984833083 -1.644642714039036
Ar -0.5389773047816018 0.8771466472389224 0.20259604417446
Ar 2.676576120930858 1.624271563589161 0.8499349232292526
Ar -0.9620131092090232 2.04239372757092 0.1573073126737092
Ar 1.168580211625636 1.07363373915006 -1.513716857048949
Ar 1.250966812997103 2.474324813706508 -3.6059179630232
Ar 0.2190577738086177 -1.438957188090878 1.30478981486976
Ar 0.03673378997824622 -0.4520925471214458 1.73539471396344
Ar -0.7920164948693871 -1.806257125362425 1.535909470837012
Ar 0.1567286048594445 3.469779714832173 -2.372938468115755
Ar -1.65856886090545 2.0280042184706 1.174349151674724
Ar -2.529016621973249 1.313794964270535 0.9088136657289003
Ar 0.2546459037653242 2.959730510233357 -3.395993430831513
Ar -3.068093375986594 -3.116687818214482 -1.985591821612714
Ar -1.515050362797909 1.170273068774505 0.5599962969140725
Ar -0.3853443486195554 1.981305578179376 -1.590002728829786
Ar -1.036263208671975 0.2299726444737784 0.938024661704573
Ar -1.285853634664379 -2.636095268766942 0.8002904284483856
Ar -0.7535168653470126 0.4846612661759204 -0.8698282334777088
Ar 1.631371349728807 1.436680491563818 1.159974666735112
Ar -2.472480209505077 -3.251242057465863 -1.049337027374132
Ar -3.132301070165992 -2.312400051632226 -1.21753364493167
Ar 0.4145468842119181 1.859362747528901 -3.212046999734579
Ar -2.086490020649092 1.990856674001059 0.1099488119758992
Ar -1.349126398264791 -0.4674741236089682 -0.7827105005299543
Ar -2.165752728386393 0.2432881771419922 0.7378326514536421
Ar 0.8912336804784691 -0.6347460157092597 0.9927941585082171
Ar 0.4143537742570048 2.725733248026271 -1.594403717103254
Ar -2.950068335432473 -1.597813707904984 -0.3160866653058039
Ar 0.5121558371243686 1.716166179927074 -2.125206101201354
Ar 1.823386741947828 1.643837474030927 0.09239006009854039
Ar 1.657787086804833 2.477956027215535 1.608565106685495
Ar -1.902722677083939 -3.0913076384161 -0.09126256299919207
Ar -0.374095696048449 -1.935086685876894 0.5159147095325499
Ar -2.345666591859451 -0.2676149799761838 -0.281593386318265
Ar -2.410721613269911 0.9048152833598315 -0.1270251726221891
Ar 3.382848378371326 -2.486166801654531 -3.121481266088931
Ar 2.016732927209171 2.388592804565552 2.666346976289461
Ar 3.475395628454193 -3.442059423108274 -2.54042122311179
Ar 1.52201446437747 3.117984088521672 3.348874088074475
Ar 0.7786962727884896 3.190312963546519 1.638466233591381
Ar -0.8024851220156665 -1.223075726373987 -0.1854196518660794
Ar 0.9364056085738487 2.589126701373734 2.547869316563621
Ar -1.224225684074562 2.283246709920527 -0.9484166833010222
Ar -2.23673847385529 -2.138707766384489 0.3462799265441765
Ar -2.677957875406075 2.415352563426704 0.9535892361843283
Ar -2.976287722657456 -2.739506953296679 -0.2003937976774806
Ar -1.89170206014482 0.471985010447737 -1.079633990505756
75
algorithm=ase_ga size=75 seed=0 index=2 energy=-340.312557529784 step=3
Ar 0.5960942521177665 -1.000086621110715 1.362723513269865
Ar -0.6655433129508412 -0.3332263433499219 -0.7772662397899768
Ar -1.292687968611555 0.4275668786532434 -1.102763216960069
Ar -1.403316827622064 -0.5399937875848639 -1.582024281285375
Ar -2.312258536980359 -0.04648922269814838 -1.288623659053552
Ar 1.441362565993148 1.533536504699528 0.7110833920960448
Ar 1.078636676138755 -1.883696232179391 0.09404961878179885
Ar -2.727941700781184 0.9057654675318542 -1.594098962830822
Ar -1.753054162172815 0.5463098859727077 -2.084429847956516
Ar -1.058540013866525 -2.111263309778941 -0.1508155174078067
Ar 0.2419741566181701 -1.096253476537314 0.2812493198353186
Ar -1.160695928254824 0.6013169397217151 -0.0508912031895895
Ar 0.4398519438920006 -0.3236253019320148 -2.287695452929924
Ar 0.5462316428603988 1.42208848651832 -0.172749475018848
Ar 1.957005810552132 -1.09000023129325 0.0532295216416399
Ar -1.504606881839875 -1.208186174120465 0.9214922960951399
Ar 0.776423677034395 2.340647948631772 0.3905939256978745
Ar -1.621259302678699 -2.284081197240622 0.7679353756303224
Ar -0.342808443687559 -0.8178783624063237 -1.685473971227421
Ar -3.650845770801961 4.165309182576741 3.969028079502418
Ar 1.526521022683209 0.4123997224591722 0.7420065120649195
Ar -0.3078637708849445 -0.07761441680502808 0.2090193821089393
Ar -1.276534702517317 -1.861272112506446 1.751127411568258
Ar -0.1913718889518655 0.6794664952395831 -0.5470736531191859
Ar -0.4566899906023506 -0.754921433442568 1.027891950188748
Ar 0.6807352059933703 -1.174744423577498 -1.596056190122177
Ar 1.499074016852751 -1.469799479201206 1.015836125652472
Ar -1.769091323623419 1.381548213982214 -1.368827586418557
Ar 0.6728240382052861 0.3893574161158184 0.09958409732366587
Ar -0.7443749835023263 1.036785876071343 -1.746951905807181
Ar 0.4481897024937231 -1.985914593549105 0.9825818413748756
Ar 1.532877371441658 -0.09388462511111018 -0.3971072954415496
Ar 0.02413774392736305 0.6944435307031865 -2.497910004881066
Ar 0.9611801303454719 0.6831981547357983 -1.982448844104058
Ar 1.344894299797335 0.9917331666566673 1.64957442600168
Ar -0.2674151702835978 -1.473569938700037 1.816776361420436
Ar 0.3866989853485515 -0.2975675454284188 -0.6293531938769428
Ar 1.083289010730396 -1.088005331335503 -0.5916482198956649
Ar 0.6858503672394514 1.936272213265837 1.43888671777923
Ar -0.8885562992941258 1.46793920300782 -0.7238037168981779
Ar -0.7804464274413248 0.04123176688100155 -2.224017054180381
Ar -1.667024678122887 -0.3776838785289697 -0.4303916365921007
Ar -2.166556255113839 0.7258072190540015 -0.5279378513996233
Ar -1.094350229978076 -1.569827198254884 -1.958896867999725
Ar 0.01606615793222608 -2.116496330227079 -0.05084944600300245
Ar -0.3011486851678808 1.392585094898292 1.58550904324765
Ar -1.880804247907511 -1.406894148462983 -0.07365082125851546
Ar -2.250891483082808 1.491636545206654 -2.402040546139311
Ar 0.3872532406827908 0.5966550332669115 1.924640831285356
Ar -1.329710115395984 -0.2086272121429424 0.6308671579667459
Ar -2.192375687180763 -1.134494117862493 -1.106313639065995
Ar -0.02935527396980134 -1.872477679623372 -1.991140503058468
Ar -0.8341108009609877 -1.028666354085484 0.05912439214038031
Ar -1.256446196006295 1.898380321113583 -2.19259286759137
Ar 1.109505718532005 -0.5680786773500333 0.4845685284878776
Ar 1.147226017137339 -0.2400154424454327 -1.416991446776656
Ar -1.137765082767355 -1.328494495336074 -0.9176261253601582
Ar -0.4803324226428171 -2.214446679919233 -1.070570115030564
Ar -0.1035080236056219 -0.3703702138549052 1.973096321688805
Ar 1.241087971069777 -0.1492732666995322 1.646751045173623
Ar -0.593447111301727 0.3733328395654119 1.206081465243235
Ar 0.3778685611468294 -0.01898961464761203 1.023619566008665
Ar -0.1876257640494495 1.749529041094272 -2.40872785725395
Ar -1.007843953568905 0.9917798011295919 -2.798293151626935
Ar -0.06080589350377965 -1.274675179151478 -0.7429433630320647
Ar -0.1865350337152711 1.811364013365955 0.5796381990114055
Ar 1.580911504333075 0.9924449834871314 -0.206481463078849
Ar 0.645119279666591 -2.066704963237838 -0.9533270981463429
Ar -1.170892397867487 -0.6779759284280042 1.824705236645868
Ar 0.5047879358233491 1.022382103365715 0.9034327014315866
Ar 0.8470896349787544 0.6567450723601879 -0.913712566598149
Ar -0.6066033507815255 -1.806549764130566 0.8078001979672814
Ar 2.086008058687403 -0.5217553250822411 1.014316219822946
Ar 0.003525865039013473 0.231549286544772 -1.507439122821505
Ar 0.2128977754997175 1.356725663431784 -1.413919850279717
75
algorithm=ase_ga size=75 seed=0 index=3 energy=-313.6739537723327 step=4
Ar 0.3968440764668309 0.03039232666116595 -2.278680611825606
Ar -1.037781999067809 2.815667690461036 3.321348369731774
Ar -2.339136894278458 -0.350060182303209 -2.094399732354618
Ar 0.2859464795607442 -2.201742544083898 -0.3599359141645144
Ar 1.193682302573079 -1.068591002994445 1.09501260998846
Ar -0.5560171964042878 -2.262508724167326 0.3247667461870224
Ar -1.161415875643778 -1.240120803810576 -1.586307174868564
Ar 0.6574498933870989 -1.190156805320258 -0.5574937885489658
Ar 0.5602065023066948 0.723172319458263 -1.444179164607901
Ar -0.3646906331766419 -1.829833112809444 2.103421934580809
Ar 0.9305229818627209 -0.5985496596165272 2.133105825821272
Ar 1.375073623551682 -1.207269904604679 -1.408007140767439
Ar 1.265297553432714 0.7464614915865199 -2.287780199070786
Ar -1.017289397591906 -0.5215891272280671 -0.745926526683188
Ar -0.5724663272409458 -2.018819020376413 -1.039605000614528
Ar 1.57910538169098 0.3690491160503718 -1.271667723758754
Ar -0.46016568543728 -0.6502873434095966 -2.221290054341042
Ar -1.496888559709494 0.9063050747708182 -1.903972837237166
Ar 0.5403898095092392 -0.1309554110954076 1.242551033345874
Ar 2.201794410092455 0.5584190730580116 0.978161007864379
Ar -0.114215298140158 0.8229025522069363 -0.5922939982355234
Ar 0.3655293704859449 -1.488033298347378 0.4696751493282069
Ar -1.10739222003972 -1.042605422907512 1.967426798620863
Ar -1.716668964290865 1.881704280721235 1.84850111939814
Ar 0.7935364965602274 -0.4997519766399826 0.254722608137819
Ar -2.170299891111466 -1.442518220505197 -1.980756546653951
Ar -1.455062308934441 -0.8660900275154824 -2.59690898180983
Ar 0.1389901290246301 -2.220419578799024 1.221796373465516
Ar 1.940162113516207 0.4710601294362232 -0.2004984694776495
Ar -1.599650726896575 2.861387556578098 2.362035372499311
Ar 1.880575326168877 -0.415722298413854 0.4782226172484545
Ar 1.194411853085095 0.4323600996924815 0.6047920077350692
Ar -0.2493206355873215 -0.5927899206164302 0.5874752596394101
Ar -0.9311831007055142 -2.473228843298493 1.373805603357696
Ar 1.45090251223035 1.407339301258161 0.9957231465587015
Ar -0.434491466176482 -1.305578687441117 -0.2273137571502195
Ar 0.1042389129268749 0.3905903192359438 0.3765274973823368
Ar -0.1527282714275799 -1.021219441019926 -1.255763115996909
Ar -3.367681463163978 2.76324192650481 1.926443950305888
Ar -0.5427197013510181 -1.335634451547963 -3.084065247512701
Ar -2.323660135857976 2.771450917227744 1.524604193208615
Ar 0.1844657614445969 -1.11799813031241 1.494025559575745
Ar 2.242597213584943 -0.5077707837990589 -1.382486645575775
Ar -1.412638749566618 -2.069004378645314 2.312052192734192
Ar 0.2313278699444343 1.102253860363659 -2.478393446944384
Ar -1.60840568618703 1.92154299228568 2.966284919352314
Ar -0.7108507352238514 -1.45848719586761 1.025405493233723
Ar -1.134150284988172 0.5678773860836515 -0.9109580136493527
Ar 0.4257394356265216 1.010743644467514 1.196800613727479
Ar -0.3030549364499182 0.06583617790602869 -1.407474896207859
Ar -0.1360464085629924 -0.7895399070515984 2.482149128820951
Ar -2.583278470323213 3.36642991810269 2.44591083582623
Ar 1.521425615551602 -0.5012511401691452 -0.5594071790382871
Ar -2.155244662666873 2.835830107469225 3.334246700602673
Ar 0.5472822787633891 -1.054300353842669 -2.121080766189902
Ar 0.7443724274514802 1.737880521347642 -1.772629399628034
Ar -2.55426650110455 2.247106898544889 2.483488976051778
Ar -0.3342638709214293 -1.750806796194498 -2.093004823375991
Ar -0.4886537516790209 -0.2212459271004152 1.585390814001109
Ar -0.4430051253268324 1.15900910633264 -1.593944519435594
Ar 0.8623018034415493 0.3577988524599806 -0.4395068405305792
Ar 1.266548784751468 0.5441015302111918 1.712954440295165
Ar -1.738554348954765 -1.704649590421025 1.318386833807921
Ar -0.6299587425351266 0.4215368418308716 -2.379701488033485
Ar 1.856832921237741 -0.3439133959539964 1.566731730794926
Ar -1.646708850909627 0.206187629501268 -2.750614268235063
Ar 1.421281983465705 -0.3420304901199057 -2.113670030117312
Ar -2.170077047233334 0.3327344938823482 -1.227655971516341
Ar -2.032615502748041 -0.7592161179604007 -1.106286937149308
Ar 0.7116800262274301 -0.3416864899566374 -1.278926654261476
Ar 0.000357692967915533 -0.3044783802696372 -0.4369849650160846
Ar 0.5010668526759217 -1.89686213380016 -1.394135483129358
Ar -0.7357535048019219 -0.2594878209023431 -3.217863492550017
Ar -1.315421857167452 -0.164977722888624 -1.742022026118063
Ar 0.7000722790950967 1.28671483222581 0.1248575510450055
75
algorithm=ase_ga size=75 seed=0 index=4 energy=-277.0312497719807 step=5
Ar 2.17284418507161 -0.6293054688179266 3.357823736351915
Ar 0.7519631734501282 1.761385570283929 -1.61531785044723
Ar 1.914362940348558 -2.565425260263238 -0.4582834722312071
Ar -0.7888296765521368 2.435814592132541 -2.288612400739719
Ar 1.870394556560802 3.155189157887822 -2.004625578036832
Ar 0.4805611565313871 -2.241989723345831 0.1749185635542624
Ar -1.80056978893125 2.497949980492936 -0.7875355748279539
Ar 1.444420285186187 1.067386454906436 2.855542486895168
Ar -2.657430927442813 -3.539727230972958 0.9956294859877819
Ar -1.584522640325311 2.985842824528353 -1.770003657570022
Ar -0.7555458323372763 2.61575044025686 -1.139180646250024
Ar -3.22022895819829 -2.675632303228061 0.55232433545978
Ar 1.314066179869161 1.959458061915717 -0.6809449219685879
Ar 2.585997672352012 -2.014816686446292 1.633023138247819
Ar 0.6297788977323389 -1.142096905814413 0.01862754413986854
Ar -0.3427940137162369 1.671954879380597 -1.55353377628278
Ar 0.973777819249931 0.3899424259562931 1.187171391493732
Ar -0.8581533756162371 1.355120761568224 -2.473838395376271
Ar 0.8248714029164574 -1.623809544852073 1.863442438015597
Ar 0.2232560841437256 2.217235968887004 -0.7579131841216699
Ar 1.248992377505136 -0.24471411391158 0.3098030975746696
Ar 1.271163746131672 1.385198329713829 1.756267456275453
Ar 1.34538087859398 -2.892834303946901 0.4753159674998622
Ar -0.247154269521534 0.7211210802556419 2.598531246662993
Ar 0.1514840859575079 1.873977795040869 -2.550603010166946
Ar 1.568924417023422 -2.134698656616821 1.245110274859263
Ar 0.0331051052605693 2.994791677565934 -2.778007240295397
Ar -1.428947060659856 1.855495850922963 -1.61962544544624
Ar 0.8878818639248649 2.908422714844208 -0.2142667234472028
Ar 1.381251805647526 -0.05534703375969763 2.856914429849832
Ar 0.8904722322560638 -2.968225902407385 -0.5373609527760618
Ar 1.65950543931326 -0.9808191794177276 -0.395780620384004
Ar 1.890181740108303 -0.3223981469912218 1.199018908897782
Ar 1.179067280254124 -1.130610241069597 0.956777674807583
Ar 0.4954223858138063 1.564691647718006 2.542647434372132
Ar 2.372503602238876 -2.420879371205739 0.5734626073718744
Ar 0.1308367779652878 2.634471444533035 -1.762205367505436
Ar -3.425201719710796 0.6953590411673614 -3.096493751263642
Ar 1.071149945642133 2.832558085052722 -1.297104445870985
Ar 2.453824613369396 -1.468112908638104 2.655227723597402
Ar 0.1950376496463281 1.16836922437172 1.537175859434922
Ar 2.008499346774968 2.337277821634999 -2.773856281448176
Ar -4.083472572668895 0.3477789063684541 -3.937634334038776
Ar 1.839323902251551 -1.243359810779145 1.779270580001366
Ar 0.3111179408808655 -1.424115207035315 2.809903026913099
Ar 1.417307849816187 -2.621698683046074 -1.454123199610561
Ar 1.488724673448615 -1.8426644736463 0.2160688895320856
Ar 1.368144301248286 -1.128491826899315 2.730844023844317
Ar 1.248410884905559 1.530104954873642 -2.568153045982807
Ar -0.06892096584137219 0.1142049196408129 1.695527819918492
Ar -3.518169672700384 -3.084725646532285 1.554220024922919
Ar 1.654561807132759 -2.166511316001532 2.345192338938232
Ar 1.784085368614631 2.082795242391256 -1.715418613840273
Ar 0.3390075264767811 -0.469706865110013 0.8918864374008832
Ar -0.01607843999364634 -0.9499748355275754 1.851672521409408
Ar 2.345862973497055 1.476801687309734 3.352294452998768
Ar -3.706786148365328 -3.684584369005951 0.6244273259352762
Ar 2.304991737931856 1.369009043740134 2.237182628480757
Ar 1.993476069636761 -1.706182467642434 -1.180288305982473
Ar 0.5715751452541725 -2.537709663647485 1.242878196341801
Ar -3.272687473142894 -0.3221167173177995 -3.546340726127903
Ar 0.103323213104788 3.320012884972687 -0.9249070047405645
Ar 1.781434511107401 0.4477289202908993 1.954770832535054
Ar 1.004485097020923 2.581747258759088 -2.383150396925585
Ar 2.517436633463927 -1.663299562167853 -0.215581826738754
Ar 1.01611886067108 -0.4894368200662234 1.864744906828515
Ar 0.9994471943214591 -1.870775473484105 -0.7436049483511509
Ar -2.448880375836227 2.288749603821116 -1.683307724448334
Ar 0.1712587845929991 -1.553461405967227 0.9581852378584771
Ar 2.252063373457014 -1.310246349658467 0.7850139994654115
Ar 0.3039349840675056 -0.3215757256872016 2.700555436420461
Ar -0.5656982985464596 3.452277298477508 -1.868607266993799
Ar 0.7513311487344345 0.5399964917396937 2.232029795987303
Ar 2.275545314259213 -0.4360946453522324 2.287075302553224
Ar 2.363937713269699 0.4484770470119026 2.921884353340367
75
algorithm=ase_ga size=75 seed=0 index=5 energy=-297.8345577778948 step=6
Ar -2.590259307963553 3.459238085614657 -1.480348030121854
Ar 3.400909270094079 0.5212195462591259 0.1604839420804146
Ar 2.615024048094053 0.5159677909132513 -0.5787567066152344
Ar -2.855134310135435 -3.093980665115083 0.6316488163886728
Ar -1.79115982448985 -1.9512512259764 1.844258238845494
Ar -2.222885656410229 -1.126197016308525 -0.1849553080075777
Ar 1.837787936589378 -0.1487551418447503 -0.1274637794968818
Ar -2.219515053825824 -1.789257360807583 -1.068213473655965
Ar -1.618926262591192 -2.357900136010018 -1.806500756419125
Ar 3.206839547435091 2.210159031086406 -0.8579570463082005
Ar -3.422746342897516 -2.265303442969994 1.121126057132726
Ar 2.154767952904752 -0.8757616761322807 0.6459961045420233
Ar -2.993951504832511 -1.47486733539332 0.4997607026392772
Ar 2.623572437037567 -1.746141512982516 1.176786495760092
Ar 3.502752928048049 1.594099694376836 -1.769616627213134
Ar 0.260252940410146 1.93740826164511 -0.3401459902671242
Ar 2.768647637713461 -0.0009435661162742256 0.9304354406572045
Ar -2.361002843737683 -3.138350181787552 -1.511999303432893
Ar -2.754836749814853 -1.46973004759578 1.58039880606775
Ar 1.239705049219245 1.8694518071739 0.144295228627364
Ar 1.178754149585939 2.208793678796857 1.174292420682545
Ar 2.516783974516536 1.373179949880376 -2.250485553911179
Ar -1.78182814568105 -2.961847529045852 0.3109214565794364
Ar 3.181182450987049 -1.121861575083146 -0.8602437978600481
Ar -1.212309064549666 -2.261866680423441 0.9735548707177247
Ar 1.149298095165311 0.6671472865755252 0.05723709542241669
Ar 0.6002620088135037 1.398461813334357 1.735385144830647
Ar -3.147488922602731 2.654558840853959 -0.930901605516377
Ar -3.537675627540541 -2.401844937827524 0.03336518156015595
Ar 2.272866618924668 -1.386728754787987 -1.477804828456839
Ar 3.018887512237471 -1.443329248471771 0.1956561390697271
Ar 3.595194556862342 1.064867111500264 -0.7939174201438712
Ar 1.986138677067051 -1.928303081406753 0.2844439794498226
Ar 0.09617896937815067 2.33568135529055 1.383027429132514
Ar -2.579388011271468 -3.294527114436872 -0.4163917778465248
Ar 2.876648257145406 -0.4068608100802554 -0.06857984124700878
Ar 2.213122347292025 2.310401892301082 -1.475857719886482
Ar 2.075726609902934 0.3859387949815593 -1.959567624232754
Ar 1.68421133954769 1.587906653154769 1.932541418460346
Ar 3.064277978316909 1.180766775919636 0.9606524053063793
Ar 1.5817902775187 0.05053748300124795 0.92133281271964
Ar 2.470764550365805 -0.338659609857722 -1.171902018520383
Ar -2.493584595713062 -2.239743886301179 -0.123940671606976
Ar 2.153386544155723 -1.131201641121657 -0.4301302187436284
Ar 1.427263377556855 -0.6762501276125424 -1.09848492535658
Ar -1.859308925946012 -3.071341247316893 1.413537983446172
Ar -2.318186290561428 -2.222899489473188 0.923499578996421
Ar 2.234696409245707 0.7474388130332141 1.508505454306593
Ar -3.061105777353894 3.681415807692762 -0.4859211273919773
Ar 0.5266727635353904 0.4746196129613455 0.964029011553878
Ar 2.913613197839011 -2.522296271390868 0.3840476493362406
Ar 1.256372455648587 2.150405872913151 -0.9130237352463386
Ar -3.193456063197253 -1.503628119656576 -0.5855835625728604
Ar 3.545008552454337 -0.05119321185429752 -0.8303841165982461
Ar 1.222818742549939 0.5089072553633197 1.865871721819197
Ar 3.097884062113784 0.5267545909114765 -1.637466386349993
Ar 1.373770048258697 1.152105682194402 0.9787251294063295
Ar 2.643047687515241 -2.085981233243093 -0.6328264078363628
Ar -1.478397658710271 -1.905346497247441 -0.01699329190523889
Ar 0.8077561180419333 1.149077999388378 -0.8553216078831267
Ar -3.098507527985344 -2.513127651685694 -0.994476575742484
Ar 0.07833943847566389 0.8182771279251758 -0.08117301805680416
Ar 2.872238593015723 1.478470481834835 -0.09126045066619047
Ar 2.214658686392881 0.7556208542294635 0.3904741038509457
Ar 1.846941894668917 1.290707296615298 -0.4785069715308995
Ar 2.619422024369018 1.374409846828773 -1.180738269796792
Ar -1.698462714064441 -2.702966763069953 -0.7519563692848709
Ar -2.712828621887309 -2.180615333940501 -1.977264207577929
Ar -1.853835452590621 -1.274171546431351 0.8648367720482503
Ar 1.616498302019613 1.344519624051561 -1.584938955821654
Ar 2.197091734861867 2.302199072327944 -0.339913352485439
Ar 1.591047644261334 0.3989945460152103 -1.004264031496721
Ar 0.3764491569819264 1.530489626033723 0.6822897825648472
Ar -2.716050289501076 -2.568652247496328 1.895287150891628
Ar 2.179794887987982 1.817425269584277 0.7110481205601699
75
algorithm=ase_ga size=75 seed=0 index=6 energy=-286.5600553154673 step=7
Ar 2.406566648800576 -2.514321966109724 2.702989382231132
Ar -2.705833599094305 -3.261062589873264 0.9131285477099286
Ar 0.5792237650070008 1.077152869957172 -1.101328049630981
Ar -0.5185417029973679 0.6114525924369121 0.2483661237218512
Ar -0.4465632275453076 1.558949909734431 0.8344286149139787
Ar 2.241999918401525 2.306043421479605 -1.413685053667643
Ar 1.446366830381024 2.19780218731773 -2.18794176352875
Ar 0.6535744033353148 1.780727938518264 0.9264370336389368
Ar 1.293165026190924 1.133412611075401 -1.904894044862902
Ar 2.095371493354236 1.23643592873537 -1.124398163366936
Ar 0.7957095644226077 2.831189405915374 -1.572117766830956
Ar 0.734721611942284 -0.1767554600135546 0.6408797389779077
Ar 1.335039101463253 1.186689007524292 -0.3601060624497757
Ar -0.02187624755051754 2.370844553506042 0.2275491693499717
Ar 0.4115487602287189 1.833477665472813 -1.874506553000732
Ar -1.079532286036451 0.986893684524135 -2.418220926352885
Ar -0.262748705274801 2.661191726924224 -1.584916136033315
Ar -2.33793468228923 -2.267233579490247 0.5155777140996036
Ar -0.1312458178621085 0.8658341944345553 -1.899628609456878
Ar 0.19772810304105 2.020499162253306 -0.8090168057528786
Ar 1.719518971360901 1.77321060688023 0.6259008166784559
Ar -1.389410507368435 0.8601259972521881 -0.5261190526215679
Ar -0.6560375697564186 1.59882269302539 -0.2310097422164507
Ar 2.001562331651426 -3.288497385941758 2.008461333760331
Ar -2.95860581778649 -2.54289166245859 2.579349145526209
Ar -1.715892338521899 -2.841423615606521 1.266893672210899
Ar -2.792229424784389 1.146620541671476 -1.678193320126764
Ar -1.843936900798302 1.794074826507349 -2.423796585335409
Ar 0.2158955700119959 0.7245074027288468 1.048797958687156
Ar 1.191845830017669 0.8299713483814312 0.6273968944819204
Ar -1.67571403077655 1.293759454073593 -1.496851956360364
Ar 0.1013897435740631 -3.710339162838098 -1.926520141852416
Ar 0.5757947633099167 0.3272970461667764 -0.3047223344038291
Ar -0.5967359462194746 1.93839904686464 -2.33848407951848
Ar -2.154823324672223 0.3773601083968939 -1.143709163807124
Ar 2.274997938602974 -2.26529537525214 1.621949297590978
Ar 1.433134935153727 -2.834122919093566 1.161533158734973
Ar 2.296211865198777 0.9898587981118924 0.06711661277343459
Ar 2.171211268774075 0.4272536233130545 -1.869820604991727
Ar 2.491691197602368 -3.171604852045151 1.005709173053737
Ar 0.3705190216994661 -3.473155491497126 -2.990075075920477
Ar 1.388260803957259 0.3637156889270319 -1.09322785561102
Ar -2.369417531529779 2.135843758732353 -1.437801033157103
Ar -2.534573074662096 -0.6506242020203339 -1.011562834653553
Ar -2.413995876500137 -3.33697493934949 1.997281066258002
Ar -1.809442660297069 -1.720960169434643 1.391856024443533