115
Lattice="13.75323 0.0 0.0 0.0 13.75323 0.0 0.0 0.0 23.89" Properties=species:S:1:pos:R:3 entry_id=0 rank=7 energy=-568.3948974609375 parent_id=-1 pbc="T T F"
Pd       0.00000000       0.00000000      10.00000000
Pd       2.75064538       0.00000000      10.00000000
Pd       5.50129076       0.00000000      10.00000000
Pd       8.25193614       0.00000000      10.00000000
Pd      11.00258152       0.00000000      10.00000000
Pd       0.00000000       2.75064538      10.00000000
Pd       2.75064538       2.75064538      10.00000000
Pd       5.50129076       2.75064538      10.00000000
Pd       8.25193614       2.75064538      10.00000000
Pd      11.00258152       2.75064538      10.00000000
Pd       0.00000000       5.50129076      10.00000000
Pd       2.75064538       5.50129076      10.00000000
Pd       5.50129076       5.50129076      10.00000000
Pd       8.25193614       5.50129076      10.00000000
Pd      11.00258152       5.50129076      10.00000000
Pd       0.00000000       8.25193614      10.00000000
Pd       2.75064538       8.25193614      10.00000000
Pd       5.50129076       8.25193614      10.00000000
Pd       8.25193614       8.25193614      10.00000000
Pd      11.00258152       8.25193614      10.00000000
Pd       0.00000000      11.00258152      10.00000000
Pd       2.75064538      11.00258152      10.00000000
Pd       5.50129076      11.00258152      10.00000000
Pd       8.25193614      11.00258152      10.00000000
Pd      11.00258152      11.00258152      10.00000000
Pd       1.34625072       1.38083868      12.08138728
Pd       4.09710287       1.39051436      12.02477371
Pd       6.82981648       1.36954832      12.02875316
Pd       9.57512057       1.39592898      11.89594876
Pd      12.38684272       1.37174114      11.92044161
Pd       1.36476999       4.11653014      11.98604494
Pd       4.10063028       4.12336046      12.03935218
Pd       6.80964813       4.10127616      12.01947362
Pd       9.56728621       4.13975942      11.94281254
Pd      12.36578195       4.13265160      11.93417299
Pd       1.37110082       6.89256210      11.94010419
Pd       4.13935064       6.87026939      11.96482277
Pd       6.87097415       6.85831372      11.95140951
Pd       9.64205429       6.82915781      11.94515418
Pd      12.39111484       6.85622887      11.94896407
Pd       1.35621279       9.70035637      11.99803950
Pd       4.11777592       9.66324146      11.95099537
Pd       6.89476706       9.64088005      11.95142944
Pd       9.64982872       9.59779534      11.89439304
Pd      12.42487279       9.60955999      11.94161946
Pd       1.38044409      12.43193351      12.05373243
Pd       4.10022502      12.39282423      12.00408001
Pd       6.86816975      12.39901143      11.97280504
Pd       9.63028672      12.36702810      11.91406436
Pd      12.44376926      12.34106839      11.97883470
Pd      13.68383785      13.72507382      14.13497134
Pd       2.74107581       0.13688572      14.18797473
Pd       5.57275375      13.58410654      14.03505572
Pd       8.32211159       0.10872385      14.02896509
Pd      11.00945412       0.06541186      13.76261196
Pd      13.56161357       2.74996206      13.99053756
Pd       2.60936632       2.89246334      14.11904487
Pd       5.38705362       2.66349167      14.17469393
Pd       8.19636935       2.74738543      13.98466139
Pd      10.87235051       2.71374525      13.87796255
Pd       0.02065623       5.52364953      13.94650576
Pd       2.72281084       5.58685244      14.00782569
Pd       5.45645426       5.48205569      14.06963720
Pd       8.27768473       5.48391788      14.03246014
Pd      11.00184883       5.39663962      13.97231527
Pd       0.04971712       8.32457151      13.97807256
Pd       2.75359296       8.29350689      13.88781916
Pd       5.49569934       8.26291838      13.94877111
Pd       8.40017629       8.22068262      13.82454729
Pd      11.08213327       8.19516369      13.93716659
Pd      13.58925958      10.96820884      14.50066404
Pd       2.74686173      11.08185155      14.01333827
Pd       5.55692854      10.90584159      13.95551087
Pd       8.34037471      11.01504549      13.92443874
Pd      11.03614049      10.88289944      13.82898808
Pd      12.43759129       6.59288201      16.10455692
Pd       8.74024710       9.62200146      16.23414153
Pd       2.03063555      12.72896974      16.64123226
Pd       1.41924898       7.01586596      16.25542301
Pd      11.87895129       9.39105140      16.30172691
Pd       8.32076879       1.37680856      16.95457669
Pd       4.98989686       0.37836916      17.18449611
Pd       5.65051682       9.65139974      17.05431273
Pd       4.39385195      11.78172785      16.13853421
Pd      10.86719048      12.42525155      15.91204918
Pd       0.84945490       4.28624432      16.30382030
Pd       3.88142622       4.40497906      16.31822128
Pd      11.15786106       3.15619958      16.54906200
Pd       2.99015182       9.51108113      16.27592788
Pd       7.25970088       7.14734176      16.87911066
Pd       6.97185775      11.97817629      16.16838948
Pd       9.73205386       6.98603633      15.97464978
Pd       7.44865066       3.72307428      16.42946525
Pd       1.07455295       1.49121040      16.04521842
Pd       4.09056000       7.08729111      15.90612262
O        9.23782925       3.11397506      17.10107482
O       10.39579169      10.53344917      16.84739627
O       12.86562387      12.54157355      15.65828297
O       11.40035776       1.29082202      17.22749712
O       10.36252217       0.44717137      17.13444344
O        5.25443384       7.65421751      17.37629197
O        4.40729276       1.01619287      15.22005189
O        2.39080344       1.64072044      17.53604464
O        8.88606117      12.46470655      15.43787791
O        1.53673918      10.98905796      15.78943594
O        3.00991030       0.38462494      17.70397563
O        2.31056988       5.38257814      17.01123486
O        6.98070927       5.58706033      15.66939534
O        7.53893852       8.89926564      17.78025492
O        5.52329244       3.35578976      16.08820269
O       13.14557524       2.98272123      16.01061891
O       11.03827876       5.17651607      16.05772907
O       13.54550613       8.25306101      16.06254251
O        6.93516363       0.02472898      17.15669971
O        7.07532364       8.65275454      15.26882167
