115
Lattice="13.75323 0.0 0.0 0.0 13.75323 0.0 0.0 0.0 23.89" Properties=species:S:1:pos:R:3 entry_id=5 rank=3 energy=-572.5492553710938 parent_id=4 pbc="T T F"
Pd       0.00000000       0.00000000      10.00000000
Pd       2.75064538       0.00000000      10.00000000
Pd       5.50129076       0.00000000      10.00000000
Pd       8.25193614       0.00000000      10.00000000
Pd      11.00258152       0.00000000      10.00000000
Pd       0.00000000       2.75064538      10.00000000
Pd       2.75064538       2.75064538      10.00000000
Pd       5.50129076       2.75064538      10.00000000
Pd       8.25193614       2.75064538      10.00000000
Pd      11.00258152       2.75064538      10.00000000
Pd       0.00000000       5.50129076      10.00000000
Pd       2.75064538       5.50129076      10.00000000
Pd       5.50129076       5.50129076      10.00000000
Pd       8.25193614       5.50129076      10.00000000
Pd      11.00258152       5.50129076      10.00000000
Pd       0.00000000       8.25193614      10.00000000
Pd       2.75064538       8.25193614      10.00000000
Pd       5.50129076       8.25193614      10.00000000
Pd       8.25193614       8.25193614      10.00000000
Pd      11.00258152       8.25193614      10.00000000
Pd       0.00000000      11.00258152      10.00000000
Pd       2.75064538      11.00258152      10.00000000
Pd       5.50129076      11.00258152      10.00000000
Pd       8.25193614      11.00258152      10.00000000
Pd      11.00258152      11.00258152      10.00000000
Pd       1.38417290       1.40134092      11.97746035
Pd       4.11362940       1.40306030      11.97105704
Pd       6.83947001       1.39190403      11.98849547
Pd       9.57512057       1.39592898      11.89594876
Pd      12.38684272       1.37174114      11.92044161
Pd       1.38541390       4.11210606      11.98415917
Pd       4.10121088       4.12175921      12.00208380
Pd       6.83767266       4.12494738      12.00201166
Pd       9.56728621       4.13975942      11.94281254
Pd      12.36578195       4.13265160      11.93417299
Pd       1.37110082       6.89256210      11.94010419
Pd       4.13935064       6.87026939      11.96482277
Pd       6.87097415       6.85831372      11.95140951
Pd       9.64205429       6.82915781      11.94515418
Pd      12.39111484       6.85622887      11.94896407
Pd       1.36339105       9.66188136      11.96219880
Pd       4.11777592       9.66324146      11.95099537
Pd       6.89476706       9.64088005      11.95142944
Pd       9.64982872       9.59779534      11.89439304
Pd      12.42487279       9.60955999      11.94161946
Pd       1.35371768      12.40148433      11.96693970
Pd       4.09620891      12.41442841      11.97552845
Pd       6.86816975      12.39901143      11.97280504
Pd       9.63028672      12.36702810      11.91406436
Pd      12.37997249      12.33606431      11.99026368
Pd      13.69123404       0.00080007      13.93857086
Pd       2.77289410       0.05953903      13.95576780
Pd       5.51572753      13.71437486      13.99076114
Pd       8.22458707       0.04819144      13.97147290
Pd      10.92832732       0.07431967      13.87670414
Pd      13.67581628       2.71385126      13.89351366
Pd       2.60688963       2.82153809      14.24089244
Pd       5.39205779       2.66400223      13.99555167
Pd       8.24998216       2.71909514      13.99875278
Pd      10.93535452       2.76817063      13.99445300
Pd       0.02926998       5.48166363      13.96418464
Pd       2.75727301       5.51448385      13.95368669
Pd       5.52094927       5.60704176      14.05174849
Pd       8.26421000       5.47020537      14.02722442
Pd      11.02422593       5.46786051      13.96189898
Pd       0.06110984       8.19823716      14.00111820
Pd       2.85124106       8.22326384      13.88469763
Pd       5.63277536       8.31410060      13.96072751
Pd       8.36383687       8.26358487      13.97820611
Pd      11.10157664       8.25739768      13.88327570
Pd       0.00167830      10.97815518      14.18373689
Pd       2.75790688      11.09844005      13.94361956
Pd       5.47652250      10.99819439      13.91245259
Pd       8.19383508      11.05927092      14.06164109
Pd      10.96809837      10.97038645      13.93949169
Pd      12.71089351       6.39051886      16.40667061
Pd       9.26659119       9.70919034      16.33248487
Pd       1.38661623      13.19872035      16.16040384
Pd       1.69071907       6.92369706      16.00660138
Pd      12.46289779       9.11340482      16.28859198
Pd       9.39381881       1.10149349      16.45818103
Pd       4.33538915       1.22398309      16.26538816
Pd       6.09458611      10.18361371      16.45577918
Pd       4.24593600      12.21287945      15.98928393
Pd      12.10864534      12.56148995      16.05458049
Pd       0.59439578       4.06199320      16.30979141
Pd       3.63447756       4.54467345      16.32734804
Pd       9.78432048       4.02897648      16.77305938
Pd       3.20903712       9.52322892      16.22272249
Pd       7.50531272       6.96289532      16.33637047
Pd       6.91876348      13.39724278      16.35604593
Pd      10.15148102       7.32275004      16.15480409
Pd       6.93098417       3.21418257      16.46106217
Pd      13.16018892       1.18357232      16.92473112
Pd       4.63123814       7.11047690      16.12819479
O        8.55189969       2.62144592      17.38861998
O       11.05757174      10.50909298      15.98290447
O        0.09985445      11.69367557      16.17563908
O       11.21268133       3.10869805      17.82508319
O       11.21261331       1.76623711      17.62824769
O        4.77841726       8.88005219      17.16068851
O        2.45256770       1.13182491      15.78960251
O       13.66579910       0.01187029      18.45508123
O       10.33401454      13.32060063      15.74495616
O        1.63367637       9.71443599      15.02162692
O        1.13150592      13.27848940      18.25072232
O        1.97945858       5.19883687      17.10547024
O        7.99288823       4.98497427      16.06601168
O        7.60881901       8.83944432      16.93511182
O        5.36966699       4.06055555      15.51787013
O       12.96620881       2.76983229      15.74226855
O       11.00179181       5.42222635      16.04272152
O        0.10611152       7.85531187      16.96035211
O        6.15067731       1.38578751      16.92151646
O        7.53007503      11.53676318      16.00919103
