115
Lattice="13.75323 0.0 0.0 0.0 13.75323 0.0 0.0 0.0 23.89" Properties=species:S:1:pos:R:3 entry_id=4 rank=4 energy=-572.5465087890625 parent_id=3 pbc="T T F"
Pd       0.00000000       0.00000000      10.00000000
Pd       2.75064538       0.00000000      10.00000000
Pd       5.50129076       0.00000000      10.00000000
Pd       8.25193614       0.00000000      10.00000000
Pd      11.00258152       0.00000000      10.00000000
Pd       0.00000000       2.75064538      10.00000000
Pd       2.75064538       2.75064538      10.00000000
Pd       5.50129076       2.75064538      10.00000000
Pd       8.25193614       2.75064538      10.00000000
Pd      11.00258152       2.75064538      10.00000000
Pd       0.00000000       5.50129076      10.00000000
Pd       2.75064538       5.50129076      10.00000000
Pd       5.50129076       5.50129076      10.00000000
Pd       8.25193614       5.50129076      10.00000000
Pd      11.00258152       5.50129076      10.00000000
Pd       0.00000000       8.25193614      10.00000000
Pd       2.75064538       8.25193614      10.00000000
Pd       5.50129076       8.25193614      10.00000000
Pd       8.25193614       8.25193614      10.00000000
Pd      11.00258152       8.25193614      10.00000000
Pd       0.00000000      11.00258152      10.00000000
Pd       2.75064538      11.00258152      10.00000000
Pd       5.50129076      11.00258152      10.00000000
Pd       8.25193614      11.00258152      10.00000000
Pd      11.00258152      11.00258152      10.00000000
Pd       1.37824203       1.40411317      11.98511687
Pd       4.10536371       1.40469177      11.97061446
Pd       6.83481573       1.39047316      11.98364945
Pd       9.57512057       1.39592898      11.89594876
Pd      12.38684272       1.37174114      11.92044161
Pd       1.38297954       4.11203723      11.99025494
Pd       4.09628679       4.12342400      12.00328400
Pd       6.83277609       4.12585400      11.99892547
Pd       9.56728621       4.13975942      11.94281254
Pd      12.36578195       4.13265160      11.93417299
Pd       1.37110082       6.89256210      11.94010419
Pd       4.13935064       6.87026939      11.96482277
Pd       6.87097415       6.85831372      11.95140951
Pd       9.64205429       6.82915781      11.94515418
Pd      12.39111484       6.85622887      11.94896407
Pd       1.36265426       9.66202068      11.96245179
Pd       4.11777592       9.66324146      11.95099537
Pd       6.89476706       9.64088005      11.95142944
Pd       9.64982872       9.59779534      11.89439304
Pd      12.42487279       9.60955999      11.94161946
Pd       1.35437260      12.40434178      11.96974548
Pd       4.09685551      12.41662281      11.97550922
Pd       6.86816975      12.39901143      11.97280504
Pd       9.63028672      12.36702810      11.91406436
Pd      12.38139822      12.33851356      11.99223931
Pd      13.69008780       0.00359674      13.94603514
Pd       2.77321488       0.06497175      13.96116913
Pd       5.51554127      13.71879123      13.98680362
Pd       8.22650473       0.04725394      13.96546969
Pd      10.92888173       0.07095407      13.88228275
Pd      13.65185965       2.71563558      13.90713046
Pd       2.58702315       2.82943024      14.26570776
Pd       5.37591982       2.66550992      13.99043031
Pd       8.23269344       2.71795390      13.98833831
Pd      10.91622941       2.76453349      13.98197554
Pd       0.03205335       5.47684060      13.97483940
Pd       2.75806555       5.51688188      13.95837662
Pd       5.52447913       5.61444021      14.05191935
Pd       8.26906249       5.46947402      14.02431543
Pd      11.02930038       5.46576266      13.96675529
Pd       0.05689756       8.18841166      14.00417468
Pd       2.84492003       8.22665494      13.88684060
Pd       5.62909485       8.31909195      13.95775345
Pd       8.36227716       8.26244065      13.97657237
Pd      11.10015427       8.25665501      13.88440310
Pd       0.01023542      10.97150174      14.17891917
Pd       2.76557786      11.10391634      13.94230441
Pd       5.48239061      11.00240564      13.91300667
Pd       8.20175236      11.05732129      14.05641999
Pd      10.97589248      10.96768538      13.93850022
Pd      12.72774382       6.38504974      16.42054449
Pd       9.27950959       9.71034153      16.32755070
Pd       1.39388472      13.20755784      16.16849210
Pd       1.71038231       6.93611232      16.02169806
Pd      12.47970202       9.10565456      16.29820358
Pd       9.39806502       1.09460790      16.45002478
Pd       4.34479013       1.23305156      16.26468737
Pd       6.10384647      10.19387751      16.45679847
Pd       4.25016008      12.22204156      15.99059442
Pd      12.11545603      12.55379164      16.05412706
Pd       0.64959350       4.08097915      16.33198857
Pd       3.66278272       4.56199958      16.33449226
Pd       9.79667659       4.02710606      16.76839972
Pd       3.22259110       9.53423092      16.22513529
Pd       7.52096230       6.96832337      16.33749491
Pd       6.92500371      13.40450817      16.34727147
Pd      10.17020097       7.32526219      16.16522095
Pd       6.94184710       3.22153358      16.45381630
Pd      13.16233996       1.17248180      16.92894956
Pd       4.64801918       7.12549393      16.13448888
O        8.56196041       2.61978097      17.37672558
O       11.07527186      10.50005204      15.98103768
O        0.11302359      11.69688956      16.16513368
O       11.21780058       3.09707677      17.81976377
O       11.21463610       1.75433583      17.61680679
O        4.78888257       8.89421151      17.16992044
O        2.45876210       1.14390818      15.79749441
O       13.61712697      13.71904769      18.44659391
O       10.33739843      13.30616444      15.74969018
O        1.64860726       9.71791661      15.02161870
O        1.09684101      13.25723917      18.26119853
O        2.02279609       5.22630214      17.13554675
O        8.00567835       4.99137547      16.06365744
O        7.61902466       8.84656380      16.92976250
O        5.38397042       4.06426719      15.50902840
O       13.03101985       2.78437024      15.78151078
O       11.01644180       5.42339658      16.04863257
O        0.12076756       7.85050019      16.98005817
O        6.16170718       1.39380590      16.91344900
O        7.53479856      11.54455417      15.99869736
