115
Lattice="13.75323 0.0 0.0 0.0 13.75323 0.0 0.0 0.0 23.89" Properties=species:S:1:pos:R:3 entry_id=6 rank=2 energy=-572.570068359375 parent_id=3 pbc="T T F"
Pd       0.00000000       0.00000000      10.00000000
Pd       2.75064538       0.00000000      10.00000000
Pd       5.50129076       0.00000000      10.00000000
Pd       8.25193614       0.00000000      10.00000000
Pd      11.00258152       0.00000000      10.00000000
Pd       0.00000000       2.75064538      10.00000000
Pd       2.75064538       2.75064538      10.00000000
Pd       5.50129076       2.75064538      10.00000000
Pd       8.25193614       2.75064538      10.00000000
Pd      11.00258152       2.75064538      10.00000000
Pd       0.00000000       5.50129076      10.00000000
Pd       2.75064538       5.50129076      10.00000000
Pd       5.50129076       5.50129076      10.00000000
Pd       8.25193614       5.50129076      10.00000000
Pd      11.00258152       5.50129076      10.00000000
Pd       0.00000000       8.25193614      10.00000000
Pd       2.75064538       8.25193614      10.00000000
Pd       5.50129076       8.25193614      10.00000000
Pd       8.25193614       8.25193614      10.00000000
Pd      11.00258152       8.25193614      10.00000000
Pd       0.00000000      11.00258152      10.00000000
Pd       2.75064538      11.00258152      10.00000000
Pd       5.50129076      11.00258152      10.00000000
Pd       8.25193614      11.00258152      10.00000000
Pd      11.00258152      11.00258152      10.00000000
Pd       1.38712636       1.38671760      11.96305773
Pd       4.11453244       1.40022321      11.97194397
Pd       6.84260220       1.39154627      11.98975837
Pd       9.57512057       1.39592898      11.89594876
Pd      12.38684272       1.37174114      11.92044161
Pd       1.39028284       4.11209593      11.97035747
Pd       4.10887502       4.12202931      11.99526244
Pd       6.84527635       4.12369840      12.00012784
Pd       9.56728621       4.13975942      11.94281254
Pd      12.36578195       4.13265160      11.93417299
Pd       1.37110082       6.89256210      11.94010419
Pd       4.13935064       6.87026939      11.96482277
Pd       6.87097415       6.85831372      11.95140951
Pd       9.64205429       6.82915781      11.94515418
Pd      12.39111484       6.85622887      11.94896407
Pd       1.36481549       9.65684311      11.96658844
Pd       4.11777592       9.66324146      11.95099537
Pd       6.89476706       9.64088005      11.95142944
Pd       9.64982872       9.59779534      11.89439304
Pd      12.42487279       9.60955999      11.94161946
Pd       1.34872912      12.39119612      11.97125067
Pd       4.09174755      12.41278996      11.97564153
Pd       6.86816975      12.39901143      11.97280504
Pd       9.63028672      12.36702810      11.91406436
Pd      12.37772293      12.33189901      11.99191679
Pd      13.67716683      13.74926517      13.93459404
Pd       2.75660682       0.04334945      13.96194968
Pd       5.50186979      13.72104136      13.98800541
Pd       8.21344010       0.04560144      13.97496410
Pd      10.91622165       0.07037685      13.87814683
Pd      13.73799820       2.70733900      13.85640220
Pd       2.64613631       2.80453265      14.18201668
Pd       5.41901446       2.67094740      13.98831568
Pd       8.27936246       2.71810302      13.99947957
Pd      10.97411039       2.77018383      14.07514175
Pd       0.02204018       5.48736493      13.94910876
Pd       2.75466807       5.51130982      13.93908800
Pd       5.51574829       5.60240591      14.04891168
Pd       8.25848408       5.46892330      14.02836728
Pd      11.01334535       5.47002151      13.96314833
Pd       0.05479204       8.20367467      14.00345717
Pd       2.83804667       8.21316134      13.90178355
Pd       5.61939394       8.31162819      13.96448737
Pd       8.35233628       8.26452303      13.97261133
Pd      11.09340080       8.25356305      13.88435181
Pd      13.75263584      10.98236898      14.21522471
Pd       2.76088887      11.08319346      13.94238635
Pd       5.47830652      11.00372921      13.90959908
Pd       8.19497843      11.05818597      14.06224534
Pd      10.96912519      10.96476200      13.94183351
Pd      12.65714333       6.37636194      16.40935933
Pd       9.24523181       9.71116723      16.33090727
Pd       1.34534102      13.23753816      16.16487321
Pd       1.64148893       6.85263814      15.99813518
Pd      12.44187811       9.09769958      16.28544670
Pd       9.35077066       1.09584502      16.46505262
Pd       4.29825971       1.23300058      16.25647881
Pd       6.05837927      10.16327606      16.45023638
Pd       4.22546736      12.21596302      15.98404371
Pd      12.07296799      12.56313032      16.06312706
Pd       0.38965981       4.00065379      16.25442146
Pd       3.55428670       4.48828942      16.29930159
Pd       9.72883331       4.02733107      16.78699939
Pd       3.18759989       9.51315169      16.23532836
Pd       7.46736756       6.96108718      16.32267955
Pd       6.88447521      13.38471724      16.35324577
Pd      10.11051117       7.32059523      16.14857062
Pd       6.88393817       3.20523827      16.45197505
Pd      13.05356357       1.24141629      16.81968095
Pd       4.57791971       7.08543318      16.11679545
O        8.49864510       2.61216388      17.39161665
O       11.04245259      10.50396834      15.98920624
O        0.07715375      11.72186224      16.20539730
O       11.14575502       3.11001663      17.86382885
O       11.15090185       1.76798136      17.65489064
O        4.75171439       8.84903190      17.16147827
O        2.41698355       1.15724619      15.77713931
O       13.63724883       0.20563452      18.41981706
O       10.29495419      13.31661521      15.74310627
O        1.61718128       9.73046185      15.03644955
O        1.09028039      13.44331097      18.23917435
O        1.84642462       5.06384166      17.03010329
O        7.94906537       4.97848784      16.06147568
O        7.58285881       8.83755972      16.92364208
O        5.32254699       4.06675759      15.51974831
O       12.68543224       2.77544451      15.57181623
O       10.94547456       5.41836958      16.04973937
O        0.07863976       7.82439799      16.95086369
O        6.11291621       1.37368334      16.91570423
O        7.49020089      11.52378908      16.00236459
