115
Lattice="13.75323 0.0 0.0 0.0 13.75323 0.0 0.0 0.0 23.89" Properties=species:S:1:pos:R:3 entry_id=3 rank=1 energy=-572.5729370117188 parent_id=2 pbc="T T F"
Pd       0.00000000       0.00000000      10.00000000
Pd       2.75064538       0.00000000      10.00000000
Pd       5.50129076       0.00000000      10.00000000
Pd       8.25193614       0.00000000      10.00000000
Pd      11.00258152       0.00000000      10.00000000
Pd       0.00000000       2.75064538      10.00000000
Pd       2.75064538       2.75064538      10.00000000
Pd       5.50129076       2.75064538      10.00000000
Pd       8.25193614       2.75064538      10.00000000
Pd      11.00258152       2.75064538      10.00000000
Pd       0.00000000       5.50129076      10.00000000
Pd       2.75064538       5.50129076      10.00000000
Pd       5.50129076       5.50129076      10.00000000
Pd       8.25193614       5.50129076      10.00000000
Pd      11.00258152       5.50129076      10.00000000
Pd       0.00000000       8.25193614      10.00000000
Pd       2.75064538       8.25193614      10.00000000
Pd       5.50129076       8.25193614      10.00000000
Pd       8.25193614       8.25193614      10.00000000
Pd      11.00258152       8.25193614      10.00000000
Pd       0.00000000      11.00258152      10.00000000
Pd       2.75064538      11.00258152      10.00000000
Pd       5.50129076      11.00258152      10.00000000
Pd       8.25193614      11.00258152      10.00000000
Pd      11.00258152      11.00258152      10.00000000
Pd       1.38915087       1.38985123      11.96179413
Pd       4.11871776       1.39977546      11.97007349
Pd       6.84350530       1.39303852      11.98980448
Pd       9.57512057       1.39592898      11.89594876
Pd      12.38684272       1.37174114      11.92044161
Pd       1.39100698       4.11694877      11.96780272
Pd       4.10808086       4.12103485      11.99891904
Pd       6.84268063       4.12554889      11.99949350
Pd       9.56728621       4.13975942      11.94281254
Pd      12.36578195       4.13265160      11.93417299
Pd       1.37110082       6.89256210      11.94010419
Pd       4.13935064       6.87026939      11.96482277
Pd       6.87097415       6.85831372      11.95140951
Pd       9.64205429       6.82915781      11.94515418
Pd      12.39111484       6.85622887      11.94896407
Pd       1.36239144       9.65755190      11.96501952
Pd       4.11777592       9.66324146      11.95099537
Pd       6.89476706       9.64088005      11.95142944
Pd       9.64982872       9.59779534      11.89439304
Pd      12.42487279       9.60955999      11.94161946
Pd       1.34561353      12.39195310      11.97120891
Pd       4.09034408      12.41055381      11.97462098
Pd       6.86816975      12.39901143      11.97280504
Pd       9.63028672      12.36702810      11.91406436
Pd      12.37449588      12.33326304      11.99565208
Pd      13.67610491       0.00606597      13.93616210
Pd       2.75824343       0.03718897      13.95241735
Pd       5.50444221      13.71803808      13.98624056
Pd       8.21438485       0.05156056      13.97871343
Pd      10.91526229       0.07404061      13.87852269
Pd      13.74470805       2.71637751      13.85374311
Pd       2.65464504       2.80490498      14.17835194
Pd       5.42486521       2.67102533      13.99381569
Pd       8.27764673       2.72386861      13.99699652
Pd      10.97175527       2.77634457      14.07736447
Pd       0.01770344       5.49764690      13.94580276
Pd       2.74933489       5.51277267      13.94397379
Pd       5.50979963       5.60465190      14.05107564
Pd       8.25151652       5.47400836      14.02560239
Pd      11.00646732       5.47470522      13.96422889
Pd       0.06770755       8.21682986      14.00872201
Pd       2.85133786       8.21363893      13.89864388
Pd       5.63007176       8.31254494      13.96853782
Pd       8.36217287       8.26876042      13.97451203
Pd      11.10370717       8.25483240      13.88682471
Pd      13.73935113      10.99963540      14.21664402
Pd       2.75169797      11.07252877      13.94240717
Pd       5.47013150      11.00191706      13.90877579
Pd       8.18557216      11.06406479      14.06050425
Pd      10.95836386      10.96709797      13.94723373
Pd      12.65544724       6.41014832      16.39388302
Pd       9.22060117       9.73351935      16.34179313
Pd       1.34948236      13.23769483      16.16161907
Pd       1.63867861       6.86396493      16.00554862
Pd      12.42930380       9.12698773      16.28668002
Pd       9.35705069       1.11525382      16.46666154
Pd       4.31395905       1.22974066      16.25437452
Pd       6.03574984      10.16834166      16.45124849
Pd       4.21369012      12.21277226      15.98087393
Pd      12.07022954      12.57828563      16.07074747
Pd       0.38843256       4.02254889      16.25304013
Pd       3.55252117       4.49762403      16.30548998
Pd       9.72918345       4.05479960      16.78766177
Pd       3.14019048       9.51485364      16.23936836
Pd       7.45873071       6.97422168      16.32360110
Pd       6.88481462      13.39036571      16.35515780
Pd      10.10200859       7.35411739      16.15679428
Pd       6.88840654       3.21711889      16.45603892
Pd      13.06286131       1.26410477      16.80854714
Pd       4.55944369       7.09635171      16.10978901
O        8.50834505       2.63277158      17.39340437
O       11.01971933      10.52449108      15.99742518
O        0.07089667      11.73130290      16.21385097
O       11.15497019       3.14025157      17.85298943
O       11.16110193       1.79815026      17.64511061
O        4.71745037       8.86188633      17.15316554
O        2.43585533       1.14586159      15.76140440
O       13.64975730       0.23728154      18.41345846
O       10.29431416      13.33096193      15.74666803
O        1.57274618       9.73443037      15.03387497
O        1.10012161      13.46672577      18.23418231
O        1.84644189       5.07608921      17.04094512
O        7.94609647       4.99458464      16.06096492
O        7.56255096       8.84833758      16.93292481
O        5.32035105       4.07061368      15.52462729
O       12.68408562       2.79828336      15.56185536
O       10.93547101       5.45401026      16.04909378
O        0.07401511       7.85706008      16.94263982
O        6.12427632       1.38234292      16.92214562
O        7.47802007      11.52256740      16.00486831
