115
Lattice="13.75323 0.0 0.0 0.0 13.75323 0.0 0.0 0.0 23.89" Properties=species:S:1:pos:R:3 entry_id=1 rank=6 energy=-571.1220092773438 parent_id=0 pbc="T T F"
Pd       0.00000000       0.00000000      10.00000000
Pd       2.75064538       0.00000000      10.00000000
Pd       5.50129076       0.00000000      10.00000000
Pd       8.25193614       0.00000000      10.00000000
Pd      11.00258152       0.00000000      10.00000000
Pd       0.00000000       2.75064538      10.00000000
Pd       2.75064538       2.75064538      10.00000000
Pd       5.50129076       2.75064538      10.00000000
Pd       8.25193614       2.75064538      10.00000000
Pd      11.00258152       2.75064538      10.00000000
Pd       0.00000000       5.50129076      10.00000000
Pd       2.75064538       5.50129076      10.00000000
Pd       5.50129076       5.50129076      10.00000000
Pd       8.25193614       5.50129076      10.00000000
Pd      11.00258152       5.50129076      10.00000000
Pd       0.00000000       8.25193614      10.00000000
Pd       2.75064538       8.25193614      10.00000000
Pd       5.50129076       8.25193614      10.00000000
Pd       8.25193614       8.25193614      10.00000000
Pd      11.00258152       8.25193614      10.00000000
Pd       0.00000000      11.00258152      10.00000000
Pd       2.75064538      11.00258152      10.00000000
Pd       5.50129076      11.00258152      10.00000000
Pd       8.25193614      11.00258152      10.00000000
Pd      11.00258152      11.00258152      10.00000000
Pd       1.33452776       1.39877055      12.07007347
Pd       4.06022498       1.39625682      11.96187811
Pd       6.83745192       1.36163198      11.96959684
Pd       9.57512057       1.39592898      11.89594876
Pd      12.38684272       1.37174114      11.92044161
Pd       1.37952542       4.11211842      12.01297166
Pd       4.08073144       4.14510669      12.00301194
Pd       6.81860339       4.11155162      12.00341182
Pd       9.56728621       4.13975942      11.94281254
Pd      12.36578195       4.13265160      11.93417299
Pd       1.37110082       6.89256210      11.94010419
Pd       4.13935064       6.87026939      11.96482277
Pd       6.87097415       6.85831372      11.95140951
Pd       9.64205429       6.82915781      11.94515418
Pd      12.39111484       6.85622887      11.94896407
Pd       1.36875324       9.67603538      12.00318889
Pd       4.11777592       9.66324146      11.95099537
Pd       6.89476706       9.64088005      11.95142944
Pd       9.64982872       9.59779534      11.89439304
Pd      12.42487279       9.60955999      11.94161946
Pd       1.36863088      12.43068275      12.02771997
Pd       4.08864770      12.39075956      11.97718841
Pd       6.86816975      12.39901143      11.97280504
Pd       9.63028672      12.36702810      11.91406436
Pd      12.41904927      12.34144446      11.97496798
Pd      13.66846491       0.00801860      14.07054088
Pd       2.71651756       0.10468665      14.13500509
Pd       5.46549226      13.73687130      13.92619967
Pd       8.26111133      13.69972264      13.95125099
Pd      10.97967331       0.09357096      13.76298224
Pd      13.53587177       2.77841919      13.96876889
Pd       2.55271964       2.91384886      14.23677023
Pd       5.41268722       2.66844232      13.95294306
Pd       8.20254225       2.66284769      13.95649288
Pd      10.85818765       2.72616305      13.91308218
Pd       0.06945704       5.50013173      13.95212228
Pd       2.76411015       5.61337948      14.03341476
Pd       5.52742833       5.55959528      14.08225542
Pd       8.28324673       5.42281565      14.00162084
Pd      11.03785771       5.40673215      13.96918099
Pd       0.07359063       8.25922423      13.95099580
Pd       2.82380325       8.32172707      13.98160479
Pd       5.59714325       8.29847911      13.94084552
Pd       8.33161640       8.23997274      13.95699371
Pd      11.05034968       8.22546971      13.92715703
Pd      13.60638228      10.93500827      14.28336122
Pd       2.74188056      11.08510735      13.98198848
Pd       5.51535641      11.02818497      13.92685231
Pd       8.28764429      10.95950930      14.08935173
Pd      10.96399966      10.93170004      13.84342369
Pd      12.52498091       6.53789787      16.11286514
Pd       9.05141273       9.58189176      16.47662804
Pd       1.75760801      12.78296189      16.57830356
Pd       1.61825376       7.02487464      16.27466895
Pd      12.10280501       9.37254852      16.20749940
Pd       9.17569210       1.05635560      16.29040516
Pd       4.46237781       1.06837919      17.13584771
Pd       5.67467685      10.01688862      16.47394363
Pd       4.23672447      12.25336582      16.00044362
Pd      11.12602414      12.51941257      15.93957776
Pd       0.83672387       4.36941464      16.42461167
Pd       3.85184361       4.54569663      16.36609465
Pd      11.14041637       3.17771782      16.61427303
Pd       2.86968961       9.74269760      16.42485692
Pd       7.18047263       6.99886124      16.21508067
Pd       6.71081598      13.38970328      16.30879989
Pd       9.83270054       6.99514399      15.98514508
Pd       7.29657367       3.33345543      16.44866180
Pd       0.73089420       1.52058628      16.13891441
Pd       4.37472330       7.13330646      16.00632776
O        9.17111991       2.83499988      17.12320162
O       10.70643356      10.60593535      16.71921882
O       13.07897036      12.48950839      15.60619616
O       11.77311968       1.43809956      17.46775210
O       10.86689148       0.45517351      17.47045958
O        4.35732254       8.74850531      17.21867776
O        3.90676650       1.58229107      15.13346582
O        1.74402086       1.54499959      17.86832513
O        9.16112139      12.89213266      15.74972672
O        1.48792084      10.97229240      15.69332090
O        2.62185020       0.45199435      17.76148546
O        2.31316927       5.38123932      17.21523454
O        7.94108168       5.17729874      15.98678173
O        7.28486103       8.82767100      16.89104149
O        5.55567575       3.94170313      15.56986648
O       13.10613145       3.14247699      15.99389522
O       11.05771292       5.18332661      16.06001959
O       13.68497214       8.16112675      16.03023626
O        6.38776745       1.48916754      16.98701102
O        6.84756497      11.45040550      15.68559005
