115
Lattice="13.75323 0.0 0.0 0.0 13.75323 0.0 0.0 0.0 23.89" Properties=species:S:1:pos:R:3 entry_id=2 rank=5 energy=-571.8642578125 parent_id=1 pbc="T T F"
Pd       0.00000000       0.00000000      10.00000000
Pd       2.75064538       0.00000000      10.00000000
Pd       5.50129076       0.00000000      10.00000000
Pd       8.25193614       0.00000000      10.00000000
Pd      11.00258152       0.00000000      10.00000000
Pd       0.00000000       2.75064538      10.00000000
Pd       2.75064538       2.75064538      10.00000000
Pd       5.50129076       2.75064538      10.00000000
Pd       8.25193614       2.75064538      10.00000000
Pd      11.00258152       2.75064538      10.00000000
Pd       0.00000000       5.50129076      10.00000000
Pd       2.75064538       5.50129076      10.00000000
Pd       5.50129076       5.50129076      10.00000000
Pd       8.25193614       5.50129076      10.00000000
Pd      11.00258152       5.50129076      10.00000000
Pd       0.00000000       8.25193614      10.00000000
Pd       2.75064538       8.25193614      10.00000000
Pd       5.50129076       8.25193614      10.00000000
Pd       8.25193614       8.25193614      10.00000000
Pd      11.00258152       8.25193614      10.00000000
Pd       0.00000000      11.00258152      10.00000000
Pd       2.75064538      11.00258152      10.00000000
Pd       5.50129076      11.00258152      10.00000000
Pd       8.25193614      11.00258152      10.00000000
Pd      11.00258152      11.00258152      10.00000000
Pd       1.37251870       1.36676191      11.98239186
Pd       4.09681353       1.39803935      11.97174802
Pd       6.83897432       1.38656261      11.98664488
Pd       9.57512057       1.39592898      11.89594876
Pd      12.38684272       1.37174114      11.92044161
Pd       1.39661412       4.09584203      11.96563512
Pd       4.10732984       4.12052423      11.98912061
Pd       6.85036831       4.12466621      11.99396730
Pd       9.56728621       4.13975942      11.94281254
Pd      12.36578195       4.13265160      11.93417299
Pd       1.37110082       6.89256210      11.94010419
Pd       4.13935064       6.87026939      11.96482277
Pd       6.87097415       6.85831372      11.95140951
Pd       9.64205429       6.82915781      11.94515418
Pd      12.39111484       6.85622887      11.94896407
Pd       1.36577978       9.63287098      12.00415507
Pd       4.11777592       9.66324146      11.95099537
Pd       6.89476706       9.64088005      11.95142944
Pd       9.64982872       9.59779534      11.89439304
Pd      12.42487279       9.60955999      11.94161946
Pd       1.34758681      12.36537751      11.96809423
Pd       4.10343050      12.40021601      11.94802829
Pd       6.86816975      12.39901143      11.97280504
Pd       9.63028672      12.36702810      11.91406436
Pd      12.36917245      12.33197537      11.98706029
Pd      13.67438863      13.71511223      13.93276931
Pd       2.74377933       0.01745325      13.96327916
Pd       5.45762642      13.75283986      13.97043533
Pd       8.17287171       0.02895964      13.98499381
Pd      10.87414302       0.12515492      13.84858918
Pd      13.72879503       2.68420550      13.87941716
Pd       2.64100472       2.76423713      14.16620427
Pd       5.42304318       2.68506259      13.96085712
Pd       8.26757965       2.71042061      13.99984572
Pd      10.95487473       2.81770494      14.05697406
Pd       0.04177913       5.47534718      13.90061412
Pd       2.76232350       5.51951447      13.92664393
Pd       5.53159411       5.62535860      14.01567038
Pd       8.26385359       5.45349427      14.05035861
Pd      11.00575400       5.49302644      13.98968132
Pd       0.08758907       8.21448824      14.02050677
Pd       2.85893972       8.23643954      13.95663302
Pd       5.61382670       8.34197420      13.96605921
Pd       8.32846047       8.24964265      13.97543401
Pd      11.06012586       8.27174711      13.85726638
Pd       0.00868680      10.93310610      14.26536257
Pd       2.79487479      11.05044868      13.93596933
Pd       5.49509882      11.03778942      13.91087359
Pd       8.20914963      11.03706747      14.04465023
Pd      10.99365205      11.02241538      13.96815160
Pd      12.59175456       6.51217116      16.19987424
Pd       9.11026285       9.70618030      16.36409000
Pd       1.28303862       0.26635466      16.20147241
Pd       1.69559530       6.83156802      16.05190720
Pd      12.24864348       9.35336461      16.08668757
Pd       9.12240349       1.08336930      16.48839587
Pd       4.17619933       1.41130277      16.26059676
Pd       5.96211987      10.10924579      16.43201332
Pd       4.18074810      12.31063710      15.95321714
Pd      11.93121005      12.88880082      16.04550472
Pd       0.36192488       4.16103792      16.27367008
Pd       3.56013687       4.53140073      16.31269469
Pd       9.71809880       3.94538175      16.80857039
Pd       3.11415231       9.61966931      16.30612493
Pd       7.39111718       6.92275019      16.33318475
Pd       6.76367405      13.32798346      16.33272828
Pd      10.01073741       7.29661668      16.08777076
Pd       6.80444047       3.21949061      16.43812438
Pd      12.88380478       1.68066195      16.96470857
Pd       4.51758832       7.06586104      16.05854881
O        8.37039786       2.64522643      17.42430158
O       10.80045152      10.66705571      16.01892476
O        0.06054705      12.47094332      15.95828215
O       11.08078193       2.63444577      17.79952282
O       10.49175798       1.41521796      18.03310451
O        4.65747923       8.77476453      17.11929278
O        2.30979987       1.93395908      16.10030896
O       13.50553635       0.61240902      18.51944993
O       10.05288952      13.33872523      15.69107119
O        1.66118902      10.58239777      15.50530196
O        0.97613252       0.16211369      18.29432157
O        1.87822486       5.09358513      17.11145214
O        7.92368327       4.96155517      16.08679459
O        7.47422859       8.79034541      16.95326279
O        5.29453465       4.11093643      15.46820642
O       12.60469088       3.02037869      15.53426025
O       10.92072892       5.39931126      16.11186084
O        0.03153746       8.08470952      16.22813803
O        6.02214341       1.33672591      16.85268529
O        7.39581541      11.47051958      15.98402254
