115
Lattice="13.75323 0.0 0.0 0.0 13.75323 0.0 0.0 0.0 23.89" Properties=species:S:1:pos:R:3 entry_id=10 rank=0 energy=-572.1031494140625 parent_id=9 pbc="T T F"
Pd       0.00000000       0.00000000      10.00000000
Pd       2.75064538       0.00000000      10.00000000
Pd       5.50129076       0.00000000      10.00000000
Pd       8.25193614       0.00000000      10.00000000
Pd      11.00258152       0.00000000      10.00000000
Pd       0.00000000       2.75064538      10.00000000
Pd       2.75064538       2.75064538      10.00000000
Pd       5.50129076       2.75064538      10.00000000
Pd       8.25193614       2.75064538      10.00000000
Pd      11.00258152       2.75064538      10.00000000
Pd       0.00000000       5.50129076      10.00000000
Pd       2.75064538       5.50129076      10.00000000
Pd       5.50129076       5.50129076      10.00000000
Pd       8.25193614       5.50129076      10.00000000
Pd      11.00258152       5.50129076      10.00000000
Pd       0.00000000       8.25193614      10.00000000
Pd       2.75064538       8.25193614      10.00000000
Pd       5.50129076       8.25193614      10.00000000
Pd       8.25193614       8.25193614      10.00000000
Pd      11.00258152       8.25193614      10.00000000
Pd       0.00000000      11.00258152      10.00000000
Pd       2.75064538      11.00258152      10.00000000
Pd       5.50129076      11.00258152      10.00000000
Pd       8.25193614      11.00258152      10.00000000
Pd      11.00258152      11.00258152      10.00000000
Pd       1.37468169       1.41511583      12.02095763
Pd       4.09141528       1.41387974      12.00586262
Pd       6.82296823       1.39651529      11.96991052
Pd       9.57512057       1.39592898      11.89594876
Pd      12.38684272       1.37174114      11.92044161
Pd       1.36487476       4.13404702      12.00002060
Pd       4.09410513       4.14255446      12.00791508
Pd       6.83385672       4.13040896      11.98904267
Pd       9.56728621       4.13975942      11.94281254
Pd      12.36578195       4.13265160      11.93417299
Pd       1.37110082       6.89256210      11.94010419
Pd       4.13935064       6.87026939      11.96482277
Pd       6.87097415       6.85831372      11.95140951
Pd       9.64205429       6.82915781      11.94515418
Pd      12.39111484       6.85622887      11.94896407
Pd       1.37989818       9.67767345      11.99166092
Pd       4.11777592       9.66324146      11.95099537
Pd       6.89476706       9.64088005      11.95142944
Pd       9.64982872       9.59779534      11.89439304
Pd      12.42487279       9.60955999      11.94161946
Pd       1.39477577      12.40862694      12.01649720
Pd       4.08123460      12.40692146      12.00370874
Pd       6.86816975      12.39901143      11.97280504
Pd       9.63028672      12.36702810      11.91406436
Pd      12.42243245      12.33427520      11.93911538
Pd       0.08762921       0.00623187      13.96784250
Pd       2.80651091       0.01108935      14.11473542
Pd       5.51984950       0.01892751      13.95879903
Pd       8.20563567       0.02409735      13.86400507
Pd      11.12325895      13.71451341      13.80251125
Pd      13.58551699       2.76010410      14.05286866
Pd       2.61287868       2.97068415      14.13281815
Pd       5.44024557       2.70339784      14.03278782
Pd       8.22101459       2.74053026      13.97043363
Pd      10.89996629       2.68135451      13.92924004
Pd       0.02966104       5.50067128      13.97929490
Pd       2.76224085       5.64715169      13.99726139
Pd       5.55371485       5.57097585      14.05510571
Pd       8.28660393       5.49963790      13.99375563
Pd      11.03246808       5.37833078      13.94494726
Pd       0.00927795       8.25120797      13.98352557
Pd       2.75485693       8.38964688      13.93825732
Pd       5.55360819       8.31480849      13.89699251
Pd       8.29294336       8.28604434      13.97307028
Pd      11.00871712       8.11221964      14.05949360
Pd      13.70475506      10.97963997      14.06902996
Pd       2.65614440      11.09959477      14.14374602
Pd       5.45377720      10.99321548      13.89234110
Pd       8.21002088      11.03946894      14.06573799
Pd      10.95089255      10.87107859      13.88552892
Pd      12.53885851       6.50046680      16.29925554
Pd       9.50902297       9.34447642      16.31308825
Pd       2.55057612      12.71033683      17.07867740
Pd       1.50302359       7.03973636      15.96571276
Pd      12.41302013       9.36180485      16.17980389
Pd       9.42638584       1.29597486      16.13965853
Pd       4.56490354       1.48968320      16.32245127
Pd       6.68025882      10.18751550      16.25985622
Pd       4.86179630      12.30876290      16.08900445
Pd      12.14255215      12.30620901      16.02421393
Pd       0.85567221       4.28009824      16.40305968
Pd       3.84311403       4.56624782      16.33441745
Pd      11.31112908       3.16891188      16.72957707
Pd       3.86559411       9.78620064      16.29382679
Pd       6.80061293       7.13388406      16.18852918
Pd       7.10160320      13.65141499      16.38890088
Pd       9.79283684       6.51325637      16.45790646
Pd       7.40398552       3.48014484      16.48829403
Pd       0.80007875       0.95905046      17.01223913
Pd       4.17113057       7.14697612      15.87972855
O        9.24786103       2.94469894      17.19175630
O       10.94365344      10.71912715      15.96812962
O       13.29821730       0.07261377      15.87274253
O       11.72028549       1.49389376      17.78612447
O       10.92662082       0.48514168      17.42070860
O        5.51207030       8.64435444      16.81806820
O        2.78102526       1.50515484      15.48396846
O        2.24425173       1.47709507      18.23518141
O        9.71318644      13.41367270      15.15538529
O        2.26668335      10.98337488      16.18307097
O        3.30628530       0.60467652      17.98512793
O        2.25270230       5.43424983      17.10001779
O        7.99639374       5.40503275      16.04718681
O        8.52836221       7.85715896      17.11674443
O        5.62952228       4.04567925      15.59768661
O       13.25034416       2.91956038      16.08571916
O       11.12897852       5.09561548      15.99906469
O       13.67227265       7.99952769      16.84294511
O        6.43579838       1.67465315      16.97949522
O        7.74777859      11.80545103      15.98901968
115
Lattice="13.75323 0.0 0.0 0.0 13.75323 0.0 0.0 0.0 23.89" Properties=species:S:1:pos:R:3 entry_id=11 rank=1 energy=-572.0999755859375 parent_id=10 pbc="T T F"
Pd       0.00000000       0.00000000      10.00000000
Pd       2.75064538       0.00000000      10.00000000
Pd       5.50129076       0.00000000      10.00000000
Pd       8.25193614       0.00000000      10.00000000
Pd      11.00258152       0.00000000      10.00000000
Pd       0.00000000       2.75064538      10.00000000
Pd       2.75064538       2.75064538      10.00000000
Pd       5.50129076       2.75064538      10.00000000
Pd       8.25193614       2.75064538      10.00000000
Pd      11.00258152       2.75064538      10.00000000
Pd       0.00000000       5.50129076      10.00000000
Pd       2.75064538       5.50129076      10.00000000
Pd       5.50129076       5.50129076      10.00000000
Pd       8.25193614       5.50129076      10.00000000
Pd      11.00258152       5.50129076      10.00000000
Pd       0.00000000       8.25193614      10.00000000
Pd       2.75064538       8.25193614      10.00000000
Pd       5.50129076       8.25193614      10.00000000
Pd       8.25193614       8.25193614      10.00000000
Pd      11.00258152       8.25193614      10.00000000
Pd       0.00000000      11.00258152      10.00000000
Pd       2.75064538      11.00258152      10.00000000
Pd       5.50129076      11.00258152      10.00000000
Pd       8.25193614      11.00258152      10.00000000
Pd      11.00258152      11.00258152      10.00000000
Pd       1.37541179       1.41208421      12.01957988
Pd       4.09297574       1.40983356      12.00446208
Pd       6.82457929       1.39281271      11.96677361
Pd       9.57512057       1.39592898      11.89594876
Pd      12.38684272       1.37174114      11.92044161
Pd       1.36429043       4.13163448      11.99898571
Pd       4.09440830       4.14077294      12.00663877
Pd       6.83511525       4.12823820      11.98850701
Pd       9.56728621       4.13975942      11.94281254
Pd      12.36578195       4.13265160      11.93417299
Pd       1.37110082       6.89256210      11.94010419
Pd       4.13935064       6.87026939      11.96482277
Pd       6.87097415       6.85831372      11.95140951
Pd       9.64205429       6.82915781      11.94515418
Pd      12.39111484       6.85622887      11.94896407
Pd       1.37922604       9.67483738      11.99156490
Pd       4.11777592       9.66324146      11.95099537
Pd       6.89476706       9.64088005      11.95142944
Pd       9.64982872       9.59779534      11.89439304
Pd      12.42487279       9.60955999      11.94161946
Pd       1.39717329      12.40428902      12.01403297
Pd       4.08456458      12.40207855      12.00309324
Pd       6.86816975      12.39901143      11.97280504
Pd       9.63028672      12.36702810      11.91406436
Pd      12.42333696      12.33033861      11.93819494
Pd       0.08604393       0.00121915      13.96220491
Pd       2.80435636       0.00430095      14.10797247
Pd       5.52067078       0.00852708      13.95521577
Pd       8.20478690       0.01261454      13.86227906
Pd      11.12257546      13.71379648      13.79925930
Pd      13.58269270       2.75570299      14.05170148
Pd       2.60939451       2.96993994      14.13343880
Pd       5.43888344       2.69438305      14.02630490
Pd       8.22088912       2.72826074      13.96776830
Pd      10.89938228       2.67943714      13.92789994
Pd       0.03309162       5.49662275      13.97583577
Pd       2.76755297       5.64368950      13.99269894
Pd       5.55765303       5.56098335      14.05749133
Pd       8.28838289       5.48936455      13.99834986
Pd      11.03386330       5.37630968      13.94923268
Pd       0.00586852       8.24730272      13.98166706
Pd       2.75375121       8.38429173      13.93958960
Pd       5.55176540       8.30260307      13.89968874
Pd       8.28763729       8.27400777      13.97513739
Pd      11.00137182       8.10842453      14.06108363
Pd      13.71165991      10.97571792      14.07406842
Pd       2.66576039      11.09162643      14.13750755
Pd       5.46007636      10.98024879      13.88859249
Pd       8.21389224      11.02533785      14.06831682
Pd      10.95585771      10.86531549      13.88498010
Pd      12.53683863       6.48366492      16.29298653
Pd       9.50675433       9.31997978      16.32099013
Pd       2.53224531      12.70186870      17.06517460
Pd       1.50261776       7.02557158      15.96197563
Pd      12.40651203       9.35214845      16.17608351
Pd       9.42469180       1.25800770      16.13128505
Pd       4.55645808       1.47607328      16.31266131
Pd       6.66153539      10.15536170      16.25255617
Pd       4.84087571      12.28985309      16.07196398
Pd      12.12992776      12.29094502      16.02717244
Pd       0.85562788       4.26361010      16.39745298
Pd       3.84985492       4.55280464      16.32735093
Pd      11.30954898       3.13556190      16.72594992
Pd       3.84052153       9.77339621      16.30146325
Pd       6.79921588       7.12232874      16.19244147
Pd       7.09107357      13.62180141      16.37961368
Pd       9.79232808       6.48689117      16.46661785
Pd       7.40808169       3.45628439      16.48503162
Pd       0.78439079       0.95082999      16.99984441
Pd       4.17017466       7.13635542      15.88095962
O        9.24987191       2.90730331      17.18302493
O       10.92972192      10.70249923      15.96942761
O       13.28494814       0.05421750      15.86333028
O       11.71873387       1.45447894      17.77811621
O       10.92180467       0.44531052      17.41527482
O        5.48597833       8.62350074      16.82495399
O        2.77220713       1.49837351      15.47577680
O        2.22987316       1.46564300      18.22282086
O        9.71235031      13.37454829      15.14652175
O        2.24329842      10.97372900      16.17354444
O        3.29038532       0.59396670      17.97124903
O        2.25591209       5.41804787      17.08890955
O        7.99727595       5.38772384      16.05325458
O        8.52865438       7.83161322      17.12474537
O        5.63715595       4.02771155      15.59697195
O       13.25284739       2.89637164      16.09013066
O       11.13013445       5.07055670      16.00373171
O       13.66741130       7.98696744      16.82840965
O        6.43016980       1.64823512      16.96476300
O        7.73346590      11.77322406      15.98750933
115
Lattice="13.75323 0.0 0.0 0.0 13.75323 0.0 0.0 0.0 23.89" Properties=species:S:1:pos:R:3 entry_id=9 rank=2 energy=-572.0982055664062 parent_id=7 pbc="T T F"
Pd       0.00000000       0.00000000      10.00000000
Pd       2.75064538       0.00000000      10.00000000
Pd       5.50129076       0.00000000      10.00000000
Pd       8.25193614       0.00000000      10.00000000
Pd      11.00258152       0.00000000      10.00000000
Pd       0.00000000       2.75064538      10.00000000
Pd       2.75064538       2.75064538      10.00000000
Pd       5.50129076       2.75064538      10.00000000
Pd       8.25193614       2.75064538      10.00000000
Pd      11.00258152       2.75064538      10.00000000
Pd       0.00000000       5.50129076      10.00000000
Pd       2.75064538       5.50129076      10.00000000
Pd       5.50129076       5.50129076      10.00000000
Pd       8.25193614       5.50129076      10.00000000
Pd      11.00258152       5.50129076      10.00000000
Pd       0.00000000       8.25193614      10.00000000
Pd       2.75064538       8.25193614      10.00000000
Pd       5.50129076       8.25193614      10.00000000
Pd       8.25193614       8.25193614      10.00000000
Pd      11.00258152       8.25193614      10.00000000
Pd       0.00000000      11.00258152      10.00000000
Pd       2.75064538      11.00258152      10.00000000
Pd       5.50129076      11.00258152      10.00000000
Pd       8.25193614      11.00258152      10.00000000
Pd      11.00258152      11.00258152      10.00000000
Pd       1.37356337       1.41490052      12.02221596
Pd       4.09267936       1.41554150      12.00395268
Pd       6.82499378       1.39677755      11.96759364
Pd       9.57512057       1.39592898      11.89594876
Pd      12.38684272       1.37174114      11.92044161
Pd       1.36369928       4.13457398      12.00211169
Pd       4.09257645       4.14156097      12.00874340
Pd       6.83262368       4.12997833      11.98970453
Pd       9.56728621       4.13975942      11.94281254
Pd      12.36578195       4.13265160      11.93417299
Pd       1.37110082       6.89256210      11.94010419
Pd       4.13935064       6.87026939      11.96482277
Pd       6.87097415       6.85831372      11.95140951
Pd       9.64205429       6.82915781      11.94515418
Pd      12.39111484       6.85622887      11.94896407
Pd       1.38033046       9.67949164      11.99066705
Pd       4.11777592       9.66324146      11.95099537
Pd       6.89476706       9.64088005      11.95142944
Pd       9.64982872       9.59779534      11.89439304
Pd      12.42487279       9.60955999      11.94161946
Pd       1.39673456      12.40837981      12.01885976
Pd       4.08071466      12.40517909      12.00365072
Pd       6.86816975      12.39901143      11.97280504
Pd       9.63028672      12.36702810      11.91406436
Pd      12.42520914      12.33414332      11.94028944
Pd       0.08954261       0.00385183      13.97230750
Pd       2.80944328       0.01611011      14.10375096
Pd       5.52351264       0.02227068      13.95055241
Pd       8.20599766       0.01705134      13.86294278
Pd      11.12429315      13.71476929      13.80395330
Pd      13.58649536       2.75615057      14.05486836
Pd       2.61062639       2.98147189      14.13593058
Pd       5.43971156       2.70706891      14.03311605
Pd       8.22167075       2.73331618      13.96833370
Pd      10.90114410       2.68072823      13.92727726
Pd       0.02949907       5.49729685      13.98046977
Pd       2.76113830       5.65679784      13.99712434
Pd       5.54882158       5.57514192      14.05571891
Pd       8.28248356       5.49535914      13.99280848
Pd      11.03124793       5.37978532      13.94569099
Pd       0.00485412       8.24964107      13.98250325
Pd       2.74985016       8.39420668      13.93912377
Pd       5.54947794       8.31276494      13.89820581
Pd       8.28724437       8.27943690      13.97092962
Pd      11.00219169       8.11324974      14.05893336
Pd      13.70944559      10.97741131      14.06475508
Pd       2.66464165      11.10228408      14.15610057
Pd       5.45960669      10.98774450      13.88563503
Pd       8.20716410      11.03193358      14.07415673
Pd      10.95027307      10.87391497      13.88383072
Pd      12.52925668       6.48828372      16.29620427
Pd       9.49970752       9.33897986      16.30873129
Pd       2.53893834      12.71258464      17.10219710
Pd       1.49062963       7.03916757      15.96275532
Pd      12.39820779       9.35863452      16.17781257
Pd       9.41933950       1.26993229      16.13253427
Pd       4.55092682       1.48697854      16.31049449
Pd       6.64928655      10.18241386      16.26837036
Pd       4.82205814      12.30721377      16.05497331
Pd      12.14441235      12.29578770      16.02800390
Pd       0.84352734       4.27034039      16.41103779
Pd       3.83052242       4.57379360      16.33154023
Pd      11.30336910       3.14422388      16.72455477
Pd       3.83237585       9.78955668      16.32759521
Pd       6.78762609       7.14600284      16.19194383
Pd       7.07969066      13.64075563      16.37822225
Pd       9.78347846       6.49807758      16.45064517
Pd       7.39260309       3.47632087      16.47918877
Pd       0.80075126       0.96250016      17.01674236
Pd       4.16154209       7.15761292      15.88599136
O        9.23604168       2.92359642      17.17494926
O       10.93114553      10.71858402      15.96664974
O       13.31064526       0.05500885      15.88042379
O       11.70865905       1.46742123      17.78484285
O       10.92049017       0.45565602      17.41363629
O        5.47902357       8.64658880      16.84454272
O        2.76448699       1.50543569      15.47759576
O        2.24654149       1.48922906      18.23716146
O        9.71170241      13.38600487      15.15023869
O        2.23843103      10.99112675      16.19802160
O        3.30878218       0.61484247      17.98624874
O        2.23705254       5.43580319      17.09625081
O        7.98185551       5.40217409      16.04435437
O        8.52425930       7.84799342      17.11064457
O        5.61714631       4.05319119      15.59736048
O       13.24870879       2.89880981      16.09250798
O       11.12338928       5.07804895      15.99898378
O       13.65489475       7.99375977      16.83748463
O        6.42285682       1.67022501      16.95926695
O        7.72517450      11.79446115      15.99004034
115
Lattice="13.75323 0.0 0.0 0.0 13.75323 0.0 0.0 0.0 23.89" Properties=species:S:1:pos:R:3 entry_id=12 rank=3 energy=-572.0934448242188 parent_id=11 pbc="T T F"
Pd       0.00000000       0.00000000      10.00000000
Pd       2.75064538       0.00000000      10.00000000
Pd       5.50129076       0.00000000      10.00000000
Pd       8.25193614       0.00000000      10.00000000
Pd      11.00258152       0.00000000      10.00000000
Pd       0.00000000       2.75064538      10.00000000
Pd       2.75064538       2.75064538      10.00000000
Pd       5.50129076       2.75064538      10.00000000
Pd       8.25193614       2.75064538      10.00000000
Pd      11.00258152       2.75064538      10.00000000
Pd       0.00000000       5.50129076      10.00000000
Pd       2.75064538       5.50129076      10.00000000
Pd       5.50129076       5.50129076      10.00000000
Pd       8.25193614       5.50129076      10.00000000
Pd      11.00258152       5.50129076      10.00000000
Pd       0.00000000       8.25193614      10.00000000
Pd       2.75064538       8.25193614      10.00000000
Pd       5.50129076       8.25193614      10.00000000
Pd       8.25193614       8.25193614      10.00000000
Pd      11.00258152       8.25193614      10.00000000
Pd       0.00000000      11.00258152      10.00000000
Pd       2.75064538      11.00258152      10.00000000
Pd       5.50129076      11.00258152      10.00000000
Pd       8.25193614      11.00258152      10.00000000
Pd      11.00258152      11.00258152      10.00000000
Pd       1.37681042       1.41419470      12.02795841
Pd       4.09531342       1.41039542      12.00726593
Pd       6.82814132       1.39674308      11.96930548
Pd       9.57512057       1.39592898      11.89594876
Pd      12.38684272       1.37174114      11.92044161
Pd       1.35954504       4.13335197      12.00028632
Pd       4.08827166       4.14198971      12.00593924
Pd       6.83085815       4.13082074      11.98592330
Pd       9.56728621       4.13975942      11.94281254
Pd      12.36578195       4.13265160      11.93417299
Pd       1.37110082       6.89256210      11.94010419
Pd       4.13935064       6.87026939      11.96482277
Pd       6.87097415       6.85831372      11.95140951
Pd       9.64205429       6.82915781      11.94515418
Pd      12.39111484       6.85622887      11.94896407
Pd       1.37944795       9.67833614      11.98624185
Pd       4.11777592       9.66324146      11.95099537
Pd       6.89476706       9.64088005      11.95142944
Pd       9.64982872       9.59779534      11.89439304
Pd      12.42487279       9.60955999      11.94161946
Pd       1.39496249      12.41247293      12.01912604
Pd       4.08420829      12.40623977      12.00369905
Pd       6.86816975      12.39901143      11.97280504
Pd       9.63028672      12.36702810      11.91406436
Pd      12.42514645      12.33758308      11.93976149
Pd       0.08939862       0.00933307      13.98207244
Pd       2.81325182       0.00375915      14.11962028
Pd       5.53223647       0.02497512      13.95749893
Pd       8.22319122       0.02399003      13.87050124
Pd      11.12763046      13.71955829      13.80163856
Pd      13.58270898       2.76752398      14.05461409
Pd       2.61512524       2.97541582      14.13168397
Pd       5.44091548       2.71341774      14.02574586
Pd       8.21984605       2.74195811      13.97136416
Pd      10.89973526       2.68935719      13.92876433
Pd       0.02364638       5.50789144      13.97994054
Pd       2.75375606       5.64848662      13.99349346
Pd       5.54749920       5.58627265      14.04646271
Pd       8.27987015       5.50224132      13.98718879
Pd      11.02560845       5.38975752      13.93391976
Pd       0.01223247       8.25535362      13.97730034
Pd       2.75529202       8.38711126      13.93389268
Pd       5.55311939       8.32158405      13.89743771
Pd       8.29536494       8.28774317      13.96979314
Pd      11.01037634       8.12324838      14.06014747
Pd      13.71368695      10.98023404      14.06536128
Pd       2.66288381      11.09335578      14.12415218
Pd       5.45900690      10.99788776      13.89877079
Pd       8.21690600      11.04321566      14.06003609
Pd      10.95344494      10.87794963      13.87636621
Pd      12.54114891       6.54402998      16.29340570
Pd       9.50276592       9.36852140      16.32213596
Pd       2.55628679      12.70565988      17.04560821
Pd       1.50764332       7.04813662      15.96283932
Pd      12.42364123       9.38072599      16.17485923
Pd       9.43107432       1.37295292      16.15603191
Pd       4.57009983       1.51232859      16.31696873
Pd       6.71849391      10.24287464      16.27290492
Pd       4.89055480      12.33126919      16.09903525
Pd      12.14246835      12.30476048      16.00735310
Pd       0.86288595       4.29434474      16.39661582
Pd       3.84851912       4.57928015      16.32752337
Pd      11.31300531       3.23787566      16.73838365
Pd       3.90179327       9.80298395      16.27004709
Pd       6.79759357       7.16702674      16.18749232
Pd       7.11730853      13.70140723      16.38538287
Pd       9.78950867       6.55969504      16.45523423
Pd       7.40146090       3.52846951      16.48407608
Pd       0.80258406       0.95893629      16.99824818
Pd       4.17162783       7.15918388      15.88276682
O        9.24368685       3.02543583      17.20086832
O       10.94270973      10.72259972      15.95588901
O       13.25999758       0.10106089      15.88145556
O       11.68714148       1.59045267      17.83581848
O       10.86462352       0.59725299      17.51056249
O        5.55267113       8.69591026      16.81456528
O        2.78755291       1.50826338      15.47584115
O        2.25180728       1.46438626      18.21886235
O        9.73731814      13.48772765      15.18214252
O        2.28500556      10.97376103      16.15845435
O        3.31499721       0.59615121      17.95970689
O        2.26246048       5.44650014      17.09912598
O        7.99276209       5.44788970      16.03914234
O        8.51632133       7.88866985      17.12896415
O        5.63176077       4.07109392      15.58115840
O       13.24732783       2.94725468      16.08464637
O       11.12691324       5.14751225      15.98599369
O       13.69182560       8.02903004      16.83828599
O        6.43732444       1.72013703      16.97582606
O        7.78035102      11.85825904      15.98187133
115
Lattice="13.75323 0.0 0.0 0.0 13.75323 0.0 0.0 0.0 23.89" Properties=species:S:1:pos:R:3 entry_id=5 rank=4 energy=-572.00634765625 parent_id=4 pbc="T T F"
Pd       0.00000000       0.00000000      10.00000000
Pd       2.75064538       0.00000000      10.00000000
Pd       5.50129076       0.00000000      10.00000000
Pd       8.25193614       0.00000000      10.00000000
Pd      11.00258152       0.00000000      10.00000000
Pd       0.00000000       2.75064538      10.00000000
Pd       2.75064538       2.75064538      10.00000000
Pd       5.50129076       2.75064538      10.00000000
Pd       8.25193614       2.75064538      10.00000000
Pd      11.00258152       2.75064538      10.00000000
Pd       0.00000000       5.50129076      10.00000000
Pd       2.75064538       5.50129076      10.00000000
Pd       5.50129076       5.50129076      10.00000000
Pd       8.25193614       5.50129076      10.00000000
Pd      11.00258152       5.50129076      10.00000000
Pd       0.00000000       8.25193614      10.00000000
Pd       2.75064538       8.25193614      10.00000000
Pd       5.50129076       8.25193614      10.00000000
Pd       8.25193614       8.25193614      10.00000000
Pd      11.00258152       8.25193614      10.00000000
Pd       0.00000000      11.00258152      10.00000000
Pd       2.75064538      11.00258152      10.00000000
Pd       5.50129076      11.00258152      10.00000000
Pd       8.25193614      11.00258152      10.00000000
Pd      11.00258152      11.00258152      10.00000000
Pd       1.37189601       1.40591644      12.03579381
Pd       4.09733954       1.40561860      12.00866984
Pd       6.83064686       1.39682161      11.96746921
Pd       9.57512057       1.39592898      11.89594876
Pd      12.38684272       1.37174114      11.92044161
Pd       1.36192574       4.13055962      11.99401659
Pd       4.09784023       4.14236473      11.99850632
Pd       6.83775148       4.13229262      11.98538398
Pd       9.56728621       4.13975942      11.94281254
Pd      12.36578195       4.13265160      11.93417299
Pd       1.37110082       6.89256210      11.94010419
Pd       4.13935064       6.87026939      11.96482277
Pd       6.87097415       6.85831372      11.95140951
Pd       9.64205429       6.82915781      11.94515418
Pd      12.39111484       6.85622887      11.94896407
Pd       1.38012706       9.67191129      11.98117071
Pd       4.11777592       9.66324146      11.95099537
Pd       6.89476706       9.64088005      11.95142944
Pd       9.64982872       9.59779534      11.89439304
Pd      12.42487279       9.60955999      11.94161946
Pd       1.38890158      12.41098710      12.02093093
Pd       4.09021429      12.40658776      12.00296428
Pd       6.86816975      12.39901143      11.97280504
Pd       9.63028672      12.36702810      11.91406436
Pd      12.41508620      12.33772806      11.95092489
Pd       0.06128119      13.73868083      13.99887551
Pd       2.81664076      13.74087014      14.11218521
Pd       5.57048752       0.01252157      13.97110015
Pd       8.29651144       0.06073160      13.89542711
Pd      11.04118229      13.74384603      13.80257520
Pd      13.59684482       2.74676005      14.06999573
Pd       2.62886963       2.98226559      14.10291725
Pd       5.46034451       2.70950811      14.01324884
Pd       8.24060399       2.73162180      13.96796936
Pd      10.90757718       2.68505339      13.94371552
Pd       0.02989641       5.48762522      13.97893686
Pd       2.76305685       5.64757034      13.98933254
Pd       5.54780830       5.57242326      14.05497968
Pd       8.28233566       5.50323293      13.98748554
Pd      11.02973247       5.38348540      13.92847469
Pd       0.01052709       8.23577449      13.98183496
Pd       2.75582674       8.38144346      13.93331558
Pd       5.55457001       8.31412496      13.89752710
Pd       8.29368417       8.30057980      13.98326374
Pd      11.00857074       8.10524544      14.06059027
Pd      13.71739758      10.95388765      14.06565901
Pd       2.66773508      11.08209623      14.10654195
Pd       5.46560037      10.99623383      13.90574103
Pd       8.23349791      11.07287703      14.03234410
Pd      10.95110913      10.85167587      13.86374303
Pd      12.55658432       6.46417638      16.32287232
Pd       9.50141089       9.25948646      16.37935734
Pd       2.54914059      12.72678793      16.98296337
Pd       1.50968469       7.03184360      15.94816738
Pd      12.43943913       9.27661927      16.21259343