75
algorithm=ssw_guard_v2 size=75 seed=0 index=0 energy=-277.9178483656908 entry_id=0 visits=2
Ar 0.783093933161277 0.829791188063039 1.320884951694112
Ar -0.4111183863480756 -0.550542409995375 0.8165222316719599
Ar 0.9291084710561944 1.600009626316826 2.11983614510613
Ar -1.219640436296194 1.336413733072923 0.04833873232295419
Ar 2.242091971915655 2.443484943537238 -2.078697600929035
Ar -1.462715029708144 -2.883995180197298 1.765934757834442
Ar 2.252030319396798 0.3498889498113759 2.87882900956565
Ar 0.9660601592677458 -0.09644505435561011 1.833817285691456
Ar -2.720094219568368 0.8314655350066659 -2.242962310983861
Ar 1.933850789979035 0.3507402596347987 -0.9888000236130123
Ar -2.138291414111838 2.002966004813286 0.1352885098657763
Ar -0.3741224916863949 -1.537294339565102 1.327873380375392
Ar 0.4901402126681256 0.6508675853857985 2.430974955982082
Ar 1.691792155148722 -0.5582430178638662 0.2771510030336731
Ar 1.04281540156932 -2.198501484255215 0.5540127866927922
Ar 1.788521257754429 -0.7181891446199544 -0.8257657403144734
Ar 0.007053756080870573 -2.383539340612175 0.7914346563360897
Ar 1.394523924267854 2.506526256760427 -2.880451629445588
Ar -1.174041994102004 -1.775813579436678 2.022251578549188
Ar -1.992347758586872 0.06038347829008298 -1.809111764154817
Ar -1.051201751933365 -2.238616318690261 1.017332177776322
Ar -1.673429097346702 -1.891892236297809 0.2254363834077609
Ar 1.320031057514837 -0.9390811651233817 1.239001092129995
Ar -1.819547323692029 3.063912077866106 0.2935226051265286
Ar 1.675650376003238 0.1862218248115809 1.062029074542046
Ar -2.47691270697158 -0.9399377109632405 -1.865128456781637
Ar -0.7762836077411037 -2.606722955327465 0.03735972832724566
Ar -0.3497849278649486 -2.513487674697601 1.83864503836085
Ar 0.4251725622758148 -1.279579643595619 0.6115005678724348
Ar -3.392579061073549 0.6271213786267582 3.615187613666112
Ar -1.802667975414867 0.5274552634713234 -2.800923725124216
Ar 1.14377598449324 -1.379763123766397 -0.1882830807544358
Ar 0.6561139254975772 -1.867813894705257 1.558581385221159
Ar -2.519700784461996 0.7788734425194012 -1.15066331613502
Ar 1.234382957525897 1.900694338806771 -1.900644023358136
Ar -0.1279760203970272 0.7556356614901925 0.7140763275701327
Ar -1.209750430574418 2.38667809733447 -0.3596771555612631
Ar 2.435652339890104 0.5006743244970219 -2.06774231574348
Ar 1.063189988113546 -1.088094100588741 2.320262692398843
Ar -0.1314334151029104 1.282723816987526 1.728788885710026
Ar 1.234417667556371 -0.09528372108884174 2.873331383786757
Ar -0.1448189317087512 0.02033115078954483 -0.0811402294710019
Ar -2.047319025456366 -1.98919967595246 1.313659763237901
Ar -1.83346967174558 1.605549550569954 -0.8567447077319489
Ar -1.343755818925687 -1.156095679740314 1.067372667046174
Ar 0.6476815133875817 -0.1704659621741446 0.7512063868395945
Ar 0.3176440806261812 -0.814006770525562 1.584013590439389
Ar -0.7370715852086407 -0.6953191708642661 1.914031700762961
Ar 2.209565267269455 1.42066191417572 -1.500673816574823
Ar 1.635195612137412 0.7235636643343799 2.047194863954168
Ar -2.609747758648198 1.775866855289802 -1.64893538519627
Ar -0.06454703287616434 -1.505639749939016 2.366765880578417
Ar 1.335374902352292 0.7695978742183036 -1.925039422579496
Ar -2.922031273573332 1.658979968103357 -0.5850209878876244
Ar 1.319510350014843 1.014506138809635 3.053298580938077
Ar 1.940432124307403 -1.578789375318315 0.6246475493935602
Ar 0.2416494793723818 -2.064858790833552 -0.2200415049867949
Ar -3.492602812945768 -0.8366712136523041 -2.334660718882358
Ar 0.04139738367009758 -1.008162134588718 -0.3864105195031491
Ar 1.96404724262396 1.488111514521636 -2.625438812040857
Ar -2.251156016401755 0.9133748477669718 -0.0801732814200956
Ar -1.218939407911053 2.216510344739035 0.7454983710049343
Ar -0.08236663314563138 0.1628398866491083 1.628826735603775
Ar -2.650164345079487 -0.1921221810728706 -2.679569127688262
Ar -2.237953301090913 2.47176767216672 1.145750396070127
Ar 0.7903257558282168 -1.0819076655974 -1.184164068649029
Ar -3.099784682820815 -0.03090434001910357 -1.658192391780675
Ar 0.8667783201882948 -0.2974712609167446 -0.3597019251225315
Ar -1.722426611611157 -2.971607496183039 0.6321978350848356
Ar 0.183577413069484 -0.4145849248695079 2.572443810694359
Ar 2.406722457812801 -0.6688762879553795 1.101439436469138
Ar -0.6695843317762102 -3.252314282102101 1.002848891355012
Ar -0.6182181647085583 -1.535073041147199 0.2909669185164679
Ar 1.973306924820935 -0.3929645099893653 2.070213357861332
Ar -1.716247103469975 1.134344313401303 -1.857034893227222
