128
algorithm=ase_bh size=128 seed=0 index=0 energy=-634.0340028811087 step=1
Ar 1.485914959651339 0.7506438781956872 1.694270328807965
Ar 0.6605172929975427 0.5164829628838422 -0.02132416841794596
Ar -0.6514988317729665 3.912530230919845 4.668603972132913
Ar -0.6270585194360266 1.32051785177196 -0.5074786637895107
Ar 0.7186818849561819 2.396368845987695 -1.907832096231396
Ar -2.106696570063359 -1.615742076702011 0.8236351880557777
Ar 2.366915709001375 -0.01688442861041049 3.15564857641605
Ar 1.522772752654621 -0.3737014035772509 1.628009615972469
Ar -2.606910322424532 -0.5795801515574026 -1.658515324367547
Ar 1.654191286729497 0.1623737466440674 0.03830772806306635
Ar -1.069778158384801 1.253007931744808 -1.507752159132358
Ar 0.2903266233969459 -2.35957620631347 0.552992393421311
Ar 0.6445566156735274 0.1262477776485699 1.970106230637501
Ar 0.8878027817235732 -1.082625918737031 -1.088928182644446
Ar 1.623258963681937 -1.364683746531307 -0.2509063054548701
Ar -0.5855600665264414 -1.318889579355999 -1.971934508948366
Ar -1.08569145288471 -0.448050710282296 -0.2011085163563504
Ar -0.008880750598446781 1.528929453500673 -1.758118991772794
Ar -1.049417341198842 0.8532894265938441 1.249589404679558
Ar -3.32129868102325 -1.44083590594427 -1.73102814738332
Ar -0.3025039960794957 0.2699925777167382 -0.408777190943224
Ar -1.830812528726226 -1.337859563870052 -0.246950884588185
Ar 2.03841697151294 -1.767509796864098 0.7719834762069272
Ar -1.83347305750007 2.013787463168525 -1.289707764355692
Ar 2.02196171249377 0.9981059245226711 2.660088249853028
Ar -3.364401090931523 -1.464264246447177 -0.6287149730110591
Ar -1.729713922185677 -2.296576774515546 -0.7723704321680991
Ar -1.013836732394275 -1.409848816220755 -0.9215252064958028
Ar -0.04205374492515374 -0.293546460225071 0.4492712609404601
Ar -4.294591489034339 0.97220974701107 4.218522267867073
Ar -2.379007131134263 -1.452656796105378 -2.297007503922236
Ar 0.02685643496599904 -1.70792686851293 -1.167470156319086
Ar 1.007272718943673 -1.470198728337848 0.699625675419228
Ar -3.087876396770959 0.3153792316930677 -0.6902947369859964
Ar 1.501942502433553 2.367296345106042 -1.094669054744891
Ar 1.24857909450123 1.119506058145013 0.6633224385523996
Ar -0.6704524801421105 2.207538470626236 -1.166032733962006
Ar 2.428098850654576 0.4325383773740698 -0.8055059558039862
Ar 1.995446211755834 -0.8651481167308092 2.496860572722662
Ar -0.7466141800022013 1.667344855885989 0.535548057777375
Ar 0.8768609668492161 -0.8390724473086373 2.423612702363822
Ar 1.684077321684432 -0.414698875027296 -0.8640444843118714
Ar -1.626710467602723 -0.8798400100813077 1.462302606743873
Ar -1.195018864231018 0.3732248621354133 -0.9104535755843739
Ar -1.988262095953899 -0.5881434294644872 0.459357673567219
Ar 0.9182348332874188 0.1182394057162275 0.9065566843605092
Ar 0.5188418349427325 -0.7529947103334483 1.356971636095577
Ar -1.130908365590841 -0.0261638130519502 1.948690153689564
Ar 1.969574067134852 1.838617124234806 -2.007819517199567
Ar 2.414033362001087 0.1061252560213281 2.036323967623563
Ar -2.046077801319403 1.152367339046323 -2.003067068829823
Ar 1.200384122718297 -2.415585877421012 1.208088366410243
Ar 1.34059628247443 0.6108194969894211 -0.8751711909605803
Ar -2.036666531630829 0.1766974779714074 -0.2659767772037346
Ar 1.963986737932843 -0.006783375908965866 4.186651683878871
Ar 0.2550344715847386 -2.640947453806448 -0.5453318043428179
Ar 0.5652918734058258 -1.652342778624717 -0.239828550128716
Ar -2.591370114998401 -2.069605741292149 -0.1039813466210871
Ar 1.155184908650617 -2.144049088646538 -0.9955878536003966
Ar 2.65011828483296 2.270946011358942 -1.231802330402823
Ar -1.726514297093373 -0.5898768370461615 -1.031760004996801
Ar -1.346061989484847 2.13006855804232 -0.2840395848828743
Ar 0.4225158261910851 1.024421234715167 1.417466131242569
Ar -0.6836504067742951 -0.4728998157585373 -1.292430917993401
Ar -2.671628226943285 1.009318001894855 0.02988096292174899
Ar -0.2753003698399963 0.4753783778834153 -1.523820505618802
Ar -3.715515917288598 -0.5102710567184904 -0.1555690683404256
Ar 0.5360474047955225 -0.09406054391407025 -0.916744744568225
Ar -1.093372459140238 -1.231467267208017 0.5224569266323588
Ar -0.2162424897038763 0.09762297335391565 1.407111861645458
Ar 2.136647832834549 0.2860861974166815 0.975528788988938
Ar -0.172516831683719 -0.4922814244838543 2.335722365265934
Ar -0.2004809623791919 0.7435766623037563 0.5712896535957862
Ar 1.47740876337801 0.0877295680683171 2.582793377525854
Ar -1.259486158558043 0.2648205666686638 -1.969920461248256
Ar 2.866014776065989 1.203942401792053 -1.646450260722854
Ar 3.016089629711458 1.432891075408172 -0.5551201328071554
Ar -1.548607701961302 -0.7820811697009854 -2.05675312130034
Ar -2.663568518238316 -0.6553414021409061 -0.5364866247189222
Ar 0.8671944505860364 -0.6085444657066392 -0.01129980465388163
Ar 1.307107263094673 -2.370583522937092 0.1005915484493627
Ar -2.724442098979098 1.274837131767867 -1.11279137657888
Ar -0.7238430299618671 -2.471193265597166 -1.125726019910946
Ar 0.4835422965133203 0.04999939178596996 3.046233711168375
Ar 1.374202122670606 -0.5652311158804544 3.417401911000451
Ar -2.911302184340552 -0.008172012951199887 0.3636177569562659
Ar 0.2408900949553331 -0.5660478435736723 -1.841270105096119
Ar -0.5477262955313094 -0.963408199887692 1.438264129611635
Ar 1.078866766602719 1.451802106852822 -1.516713387079635
Ar -0.02694085616428282 -1.319725665009211 0.5776703778123491
Ar 2.163281622104181 2.160863935355534 -0.2192321304103728
Ar 1.74741661085932 -0.7080558683168268 0.6409835221160072
Ar 0.8497988805419829 1.009016621027331 2.56341957688635
Ar 2.438035255395783 -0.9201054423588816 1.467504250850227
Ar -0.4994562899131753 -1.936501102756163 -0.1518624837554019
Ar -2.435507964116288 2.02144211230343 -0.3262393298612981
Ar 0.4150172389313913 2.102662611711559 -0.8817750670860186
Ar -2.172861859558348 0.3509175552751586 -1.310496622901551
Ar -1.507414836330876 -1.876245175396015 -1.764838675040991
Ar 2.378313648693447 0.9353306775955026 3.719189032794636
Ar 2.160532550656615 1.097475289033075 0.05769823745239456
Ar -2.963233434065625 -1.128185934945277 0.3807743092523829
Ar -0.6633965748420311 -2.063795220534032 1.057231510030997
Ar -3.134359917048153 0.4129626283625695 -1.791241311140755
Ar -1.06573580184379 -0.1724994921014108 0.8379770205182772
Ar -1.172843666151173 0.6502186287747096 0.1511700995964284
Ar 2.035154771641231 1.415524832170132 -1.004519427457441
Ar -1.444343995111258 -2.262067140021048 0.2700924742219699
Ar -1.808812341188825 1.468862141766615 0.4903268141865267
Ar -0.1236404068070083 -0.8715904771501146 -0.4652864944450288
Ar -2.240360221202954 0.1073568505186409 -2.40664862781169
Ar 1.343694894878162 0.6050133855019618 3.504521542542361
Ar -2.009642779735254 0.427203588829364 0.8391215068961987
Ar -2.368499737849896 -1.511650096572723 -1.165976555170533
Ar 0.3218720940303175 -1.789480940258893 1.53053375800397
Ar -3.586540771803778 -0.4976954442780119 -1.230452388973895
Ar 0.3426404865380965 1.031250336996559 -0.8680176882632472
Ar -2.658459524639148 -0.5327415848271337 1.299881062788553
Ar 0.7722563758946532 0.4576466255308778 -1.819885698476005
Ar -3.500945733630604 0.3085399199131638 4.653941405508431
Ar -1.771797869589532 1.185840928489978 -0.5963032341556589
Ar 0.278327635772109 1.564140526360564 0.1198867299517787
Ar 1.435831138762363 -1.440542758009593 1.684527440129522
Ar 1.216497461974537 1.548128884332509 -0.3567260175014905
Ar 1.877387761312694 0.6988872413898911 -1.814055650616446
Ar -3.373215560744204 1.423533630178917 4.673817997195453
Ar -0.2319871739503463 0.6545670475762204 2.334783471701026
Ar -0.3149847831641438 2.436847858432611 -0.1395779358582309
128
algorithm=ase_bh size=128 seed=0 index=1 energy=-637.4399375166815 step=2
Ar 1.393010210552605 0.7962358663376938 1.722186091321732
Ar 0.8139940412216067 0.4789864802960407 -0.05346153388698755
Ar -0.6770876558154472 4.187352324873858 4.979440209165592
Ar -0.6203091130204264 1.319729793901069 -0.5087215792098763
Ar 0.7922382836844036 2.463821569757688 -1.841597330199028
Ar -2.104688441513997 -1.64664116327002 0.8080508407245923
Ar 2.383860348546692 0.04270788965888456 3.082833664939997
Ar 1.44932019294826 -0.3435707713251535 1.613152237216192
Ar -2.596983062855574 -0.5321647882950969 -1.522140155728923
Ar 1.632785982556427 -0.2745756141281573 -0.4243670301269145
Ar -1.093587036636291 1.261627524743095 -1.500581370972915
Ar 0.2515067083401121 -2.368270026022623 0.5619220694098285
Ar 0.5849760705813292 0.135425552393219 2.019450105861379
Ar 1.00464005038769 -1.010327820912879 -0.9545116798491763
Ar 1.630874369013933 -1.387360331047013 -0.1728448146261594
Ar -0.4497370752939555 -1.398613598117704 -2.070737638730023
Ar -1.062662934824951 -0.4154678473337479 -0.1334959955362454
Ar -0.01159576598118683 1.592304374072854 -1.731715656843614
Ar -1.064863568450551 0.8611602788720343 1.271616972119042
Ar -3.212925934037531 -1.405616201946849 -1.801923923620489
Ar -0.2275899456395195 0.2884637681457405 -0.3328760228477804
Ar -1.638395114992322 -1.330651319883667 -0.2876103131677954
Ar 2.021066610385323 -1.738956766216683 0.8199530156584731
Ar -1.85331886874691 1.999806748290008 -1.268837258953467
Ar 1.968054583320752 1.040542624214356 2.654009358119699
Ar -3.292681882492596 -1.463038489746466 -0.7252172948953566
Ar -1.543158638122367 -2.27290585387615 -0.8171703589243343
Ar -0.9539106719744358 -1.376944005506643 -1.095926339169149
Ar -0.1781321981097559 -0.3224249856086215 0.5270147153702468
Ar -4.537251017583947 1.027481717132458 4.517378228396267
Ar -2.27882632429953 -1.222603096639704 -2.323901463315257
Ar 0.1302993566760576 -1.590635322275593 -1.185881353704765
Ar 0.9883724762487208 -1.465749759084778 0.7395718611941136
Ar -2.987848421367062 0.2099475863328929 -0.7541863203817689
Ar 1.554175433900599 2.325533687283703 -1.004569347077605
Ar 1.1585627991694 1.186027189245416 0.6965202175644849
Ar -0.6924949037926034 2.220279815296448 -1.140144609903039
Ar 2.362468346302431 0.2962916337884089 -1.069985709362805
Ar 1.987936099304959 -0.8163607404266562 2.468528652570466
Ar -0.7359684989254679 1.637095367819456 0.5427222821450939
Ar 0.85591086374134 -0.8262635257460672 2.442715732243943
Ar 1.496792142782025 -0.2847194007063026 -1.589120292020902
Ar -1.662823282251888 -0.9336356054181829 1.509808562624448
Ar -1.098758446520732 0.368987812744883 -0.8854846612691466
Ar -1.993444483767168 -0.6342737829781321 0.4548867315577677
Ar 0.7733939433857813 0.1914003626928443 0.9553285838696455
Ar 0.4748152753678933 -0.7365190229601739 1.369870388405263
Ar -1.187918609909091 -0.05095776808947278 2.017641142430178
Ar 1.98880102126373 1.903583144254838 -1.959518040369658
Ar 2.334425524249005 0.1849096085892236 1.950268864466215
Ar -2.056421680199099 1.145042823205241 -2.05221049876503
Ar 1.172751334162579 -2.407448279681411 1.241146469950742
Ar 1.312673566267672 0.5779817182843643 -0.9879769290650438
Ar -1.983905341823352 0.1587190499152104 -0.261621101453607
Ar 2.051051986754741 -0.004854865551682005 4.138485922361509
Ar 0.2073450840145239 -2.581334984974151 -0.5703899705364482
Ar 0.5518680622465139 -1.635088004495237 -0.2068733620870529
Ar -2.475514454794156 -1.969457529812783 -0.1960192133971559
Ar 1.153677952723464 -2.104645274504894 -0.9647733230727772
Ar 2.709659288667954 2.148344532144584 -1.087921600729647
Ar -1.634145020955225 -0.5489505712475072 -1.035063794030671
Ar -1.348962519706304 2.122022627972526 -0.2590585461400756
Ar 0.3314826239754283 1.074337371797917 1.543420043225306
Ar -0.536247708930595 -0.446755989620438 -1.355715558838019
Ar -2.663155427991883 0.963424827517229 -0.008481776110525328
Ar -0.2594709859779763 0.5515510738841305 -1.539443806972499
Ar -3.655287554970748 -0.5465697974510811 -0.2553413046679601
Ar 0.4948158858020748 -0.09058748322730475 -0.9713354360006852
Ar -1.09322324270105 -1.220593532666683 0.5936355455815774
Ar -0.2832026140541485 0.1161967877584949 1.471442435580834
Ar 1.906263518722807 0.3544425080846552 0.8932842674378587
Ar -0.208100526530735 -0.4979427241407014 2.395384547045019
Ar -0.1235947905300592 0.7395009618056221 0.6243675992066139
Ar 1.450448984129674 0.1116277639317281 2.580908944654905
Ar -1.2060282481511 0.2772346852543557 -1.968105280671334
Ar 2.852549080383838 1.160188214226475 -1.681578890574129
Ar 2.936724260352394 1.120474834065892 -0.5333398422347031
Ar -1.349235023513382 -0.7943581029842166 -2.023948656421103
Ar -2.544469260342089 -0.7447078567869403 -0.4689582599445337
Ar 0.750901626680745 -0.603864117739078 0.09884119616889613
Ar 1.274328217481135 -2.376717600408353 0.1351951808818523
Ar -2.695369091059946 1.247713275144421 -1.104659332712401
Ar -0.5897027421986465 -2.376120591869561 -1.346153267489781
Ar 0.4795114887211655 0.03385735109264771 3.097753212803244
Ar 1.408273376996491 -0.5546993248873864 3.410943096861021
Ar -2.903504839021445 -0.04322300709092778 0.3261967656603134
Ar 0.4201158674956221 -0.6954786094419017 -1.854590316528689
Ar -0.5698081488807029 -0.9581903902318277 1.48898835074316
Ar 1.064302191809089 1.468699952904811 -1.536014836908052
Ar -0.04915512357507721 -1.342855793673167 0.6082052373744047
Ar 2.195202612181533 1.86150354919878 -0.1037514243072984
Ar 1.690591522110926 -0.6571804781546361 0.6191137453412298
Ar 0.7942452577203459 1.011465957577204 2.627502600516396
Ar 2.388790578515149 -0.855751351473506 1.438100313812718
Ar -0.5462643513867168 -1.8466290522476 -0.2213897457260161
Ar -2.432471994914069 1.988694422387027 -0.3070354632958359
Ar 0.422782261951626 2.115387060355287 -0.8575741001084189
Ar -2.069007488258987 0.390093024676167 -1.311190476770649
Ar -1.460136782877736 -1.898683677398357 -1.901092911030263
Ar 2.38663719955148 0.9718518145230749 3.687348786385861
Ar 1.939232389699737 0.7473647005116164 -0.1094928344187589
Ar -2.997796410945112 -1.155769291690413 0.4148618592450381
Ar -0.6842435643499348 -2.066745151371965 1.121913070377971
Ar -3.02308569306052 0.4439678939696862 -1.836857998059843
Ar -1.152433027260038 -0.173626418303199 0.9247157537909235
Ar -1.123116126270463 0.638192987858462 0.1926256853939511
Ar 2.020598059706038 1.340389126245788 -1.039838649143956
Ar -1.406509177668313 -2.268862745864928 0.2756771158379257
Ar -1.808125649067232 1.441999837662279 0.4920107569542769
Ar -0.1432086352188964 -0.8462413510949329 -0.4435366015955337
Ar -2.156355398201691 -0.03959562771902373 -2.36588581980512
Ar 1.355218367677665 0.600361300308734 3.523724374294968
Ar -2.042138796866697 0.4211186248981665 0.8184780913524146
Ar -2.21761465942432 -1.493372109157093 -1.211088656181979
Ar 0.3056120922686303 -1.777807108499903 1.566391360281776
Ar -3.649337431308254 -0.4761582294721293 -1.344794439989452
Ar 0.3550847250698433 1.034693219769333 -0.8498384932801765
Ar -2.642579723113341 -0.4801109126717266 1.298496424872745
Ar 0.7419494741343883 0.4671499889423198 -1.905294943872057
Ar -3.737489451267076 0.373861198053531 4.956789998807863
Ar -1.732497409859513 1.164439109660738 -0.5785875976661213
Ar 0.2748784846936427 1.561043328967884 0.1108204415253386
Ar 1.417704332596324 -1.420750629687278 1.715874944452783
Ar 1.204617738533337 1.496343470417813 -0.3783637685839776
Ar 1.825187566104914 0.7576150658638827 -1.947154705449078
Ar -3.621374001240212 1.490192914771253 4.972338323797878
Ar -0.2871219111408009 0.6349781147757871 2.427887842311376
Ar -0.3210494995072906 2.436386437281055 -0.1175666416646223
128
algorithm=ase_bh size=128 seed=0 index=2 energy=-637.3772060257237 step=3
Ar 1.407815122901505 0.8280245932681281 1.680812911457902
Ar 0.8023352388817929 0.4862497819428884 -0.0803154172109224
Ar -0.7282414566644932 4.015083200827928 5.245101343572661
Ar -0.6449227645644027 1.318939281511592 -0.5157362688090685
Ar 0.722951149602976 2.434052427005213 -1.903559049095064
Ar -2.093175386024739 -1.63988361214473 0.8354840335767967
Ar 2.429945350929247 0.1056014369634814 3.033841676548223
Ar 1.471272792047046 -0.3145554553121561 1.5871313218785
Ar -2.444991258124531 -0.5594491131696955 -1.703904744352581
Ar 1.627186766185645 -0.26643763399343 -0.4489771427579063
Ar -1.159928629346824 1.234612232039662 -1.505552966322585
Ar 0.2752557492686672 -2.355467996907159 0.59623515463378
Ar 0.6115691610917749 0.1652010266784858 2.002408234274353
Ar 0.9987860562732458 -1.010823446058275 -0.9571403309491968
Ar 1.639053879353189 -1.379591294357505 -0.1819882026934286
Ar -0.4625619890536367 -1.427515705660314 -2.03866624313728
Ar -1.069454569267623 -0.410930099411666 -0.1161835834574527
Ar -0.07763426062776511 1.568890036016016 -1.758094981963707
Ar -1.051829080613791 0.8726383218002365 1.283812405523598
Ar -3.135670473092395 -1.456439661234535 -1.785045204816837
Ar -0.2424086437319054 0.2857412806833445 -0.3291237599605336
Ar -1.687098895662641 -1.329103734532849 -0.2636611996686756
Ar 2.040436211654326 -1.715790773602671 0.8093335487613809
Ar -1.879034681253708 2.015191918449646 -1.214685669210549
Ar 1.99532467150234 1.091434159617277 2.599257924322341
Ar -3.229697686774475 -1.513296849943988 -0.7031831637168583
Ar -1.543053324604378 -2.294846257185749 -0.768686580987161
Ar -0.9683000471215218 -1.403844417629261 -1.051456520954234
Ar -0.1719281145794908 -0.3166018037091106 0.5331615729509858
Ar -4.533863469673168 1.244360872815244 4.828940138927048
Ar -2.22955879286151 -1.466757232910172 -2.371554553505913
Ar 0.1258618179821467 -1.600639038952162 -1.162038813648658
Ar 1.005452537039466 -1.444352508742583 0.7447833909106611
Ar -3.034064687394514 0.2748679140169628 -0.6715714341368978
Ar 1.503109196965823 2.316211821727341 -1.083096030121687
Ar 1.152523222177096 1.204375609953747 0.6538318728596996
Ar -0.7410434588569487 2.202130012703901 -1.149973442684456
Ar 2.331484229113507 0.2966670135189206 -1.12939869487483
Ar 2.031814428982802 -0.7673253816435938 2.441656616351852
Ar -0.7219977885012929 1.645561256976793 0.5455724002450637
Ar 0.9000695851106902 -0.7882154392036607 2.436028079490444
Ar 1.467049595747356 -0.2997014260482318 -1.621677848640421
Ar -1.648375316792975 -0.9193777517486894 1.522564086895331
Ar -1.122925337131828 0.3793922646616409 -0.8618311358580804
Ar -1.99037575678521 -0.6255556534745882 0.466848098420881
Ar 0.7823744179683746 0.2071631113780939 0.9339110300946271
Ar 0.4901808233968086 -0.7146012534625146 1.371811774694217
Ar -1.159956192198804 -0.04374913741087112 2.032673194816026
Ar 1.916872255354925 1.882320194004779 -2.041592892541451
Ar 2.356936623543084 0.2284613077709632 1.898819847433385
Ar -2.163331892915458 1.217711028299909 -1.966476238161588
Ar 1.204159657525636 -2.380345328946906 1.254637715712942
Ar 1.279856619494579 0.566024424391832 -1.027127302691988
Ar -1.997036572795736 0.1706316518730655 -0.2301884759617964
Ar 2.11700987789684 0.06806715075146726 4.096116189277661
Ar 0.2651060195746713 -2.606010657887817 -0.5105155147874157
Ar 0.5639825491878451 -1.630112520002587 -0.1939613583751291
Ar -2.446069896700096 -2.068427530976431 -0.156735895143442
Ar 1.163213755614644 -2.100788474389364 -0.9567034797247462
Ar 2.656654038579411 2.149974215159682 -1.19444066986377
Ar -1.618704750031321 -0.5386225638899491 -1.014947695411452
Ar -1.355346200939678 2.127729525007222 -0.2288250949327348
Ar 0.3410104201127722 1.09779951208837 1.525955836548033
Ar -0.5563962518932349 -0.4751518944447 -1.338381160386039
Ar -2.662484811173742 0.9733100946921115 0.07915382552897215
Ar -0.3184361747063656 0.527328936085287 -1.564089416434086
Ar -3.6548572711962 -0.580127772646562 -0.2337227019364464
Ar 0.4633831375555305 -0.1054653267986072 -0.9779786798286551
Ar -1.084770672309626 -1.217798412821183 0.5939169819878096
Ar -0.2673924300705837 0.1321758093769898 1.47263232417752
Ar 1.906738408971828 0.3814264518606229 0.8448881935800131
Ar -0.1668083009475498 -0.4801698241609723 2.390375647944756
Ar -0.1198111781562054 0.7460557625520412 0.6194831383401018
Ar 1.486744126031459 0.1562170354464369 2.548388304339867
Ar -1.279675944292984 0.1713424371364553 -1.911834213422104
Ar 2.795893017638655 1.152459099988878 -1.771852720685892
Ar 2.90886384688821 1.138706806872847 -0.6248913143958496
Ar -1.403967088855432 -0.9043265728188222 -1.980289704839908
Ar -2.563318954388908 -0.6885091797958168 -0.5546598727087958
Ar 0.7524448485922869 -0.5938229771832797 0.09042053560163617
Ar 1.288581371245236 -2.365949258431899 0.1467487337729533
Ar -2.73504979146281 1.272641563016365 -1.021409784623622
Ar -0.5653167015489078 -2.417881374166743 -1.234934012753417
Ar 0.523638168419159 0.07338690545541431 3.082023089997527
Ar 1.465716965451579 -0.4978895874666538 3.389284256555024
Ar -2.907309250411789 -0.06550075305411604 0.3626124631683604
Ar 0.3974661237665914 -0.7183162226455904 -1.854896763251039
Ar -0.5562466279810017 -0.9420338983320622 1.492448370610402
Ar 1.007952400503003 1.44493426673532 -1.588965378636249
Ar -0.03631889216518521 -1.334882501054077 0.6205122886161553
Ar 2.16788770323105 1.879936211080196 -0.1936108906279452
Ar 1.70302106103247 -0.6378263725357581 0.5950448295375589
Ar 0.8228291938075476 1.049826482356499 2.59579743809151
Ar 2.4135846711063 -0.8211968224085608 1.406062504660843
Ar -0.5195668672664063 -1.876345049077774 -0.1943915906739541
Ar -2.4385628032368 1.999572765461438 -0.2333502085535923
Ar 0.3813637692167743 2.096688948466138 -0.9051198030666658
Ar -2.117690551847189 0.3972392929837462 -1.269361003981024
Ar -1.408170099868912 -2.011596716262528 -1.847368820061932
Ar 2.430817675991944 1.042743710921396 3.626365962306789
Ar 1.927420539889763 0.7631032494727825 -0.1656097941082495
Ar -2.936263524313325 -1.189153546187683 0.3314528868727999
Ar -0.6658984627347704 -2.046801312821119 1.149931800560032
Ar -3.074121383377626 0.4394074278057317 -1.760489943445263
Ar -1.142370182272723 -0.1655395965983629 0.9370219607222355
Ar -1.126493423935165 0.6456552697348303 0.2098604370960808
Ar 1.977891751254315 1.33537371270208 -1.11333884707064
Ar -1.389787444456409 -2.26311731300863 0.3130524193180165
Ar -1.792310952321545 1.448098809400469 0.5400384694252028
Ar -0.1563925209332506 -0.8590428460398457 -0.421756606448246
Ar -2.22748172462952 0.2119276509549219 -2.43374348135302
Ar 1.401482325752985 0.6557035577513328 3.486474847594
Ar -2.040105714796745 0.4181490501076185 0.8528978096938697
Ar -2.16445508652224 -1.493882657426145 -1.220640104753589
Ar 0.3327582591644234 -1.75399659194116 1.58199214207563
Ar -3.437630577279594 -0.5310107043582917 -1.290596277052008
Ar 0.316692059262711 1.013815519926334 -0.8867421435714619
Ar -2.68833339659728 -0.6433105509633039 1.284842044767855
Ar 0.6860446370919752 0.4331407765961786 -1.92564156716158
Ar -3.933268879544794 0.3203699324501877 5.04212534086823
Ar -1.755475545543907 1.173454362068588 -0.5407162812084424
Ar 0.2615812823839681 1.552352020786766 0.07148869437267709
Ar 1.453088216435854 -1.390056537905095 1.71200164343594
Ar 1.176746101544774 1.492756947891335 -0.436577360697349
Ar 1.76613559366784 0.7352054640371054 -2.003749461300216
Ar -3.425266390148294 1.319821890496866 4.987808637926208
Ar -0.2589881886091638 0.6557303035260564 2.424777675173869
Ar -0.3241112726811002 2.437874871344144 -0.1420260274599686
128
algorithm=ase_bh size=128 seed=0 index=3 energy=-641.3487080570499 step=4
Ar 1.442418068381026 0.204340960066188 1.332562906909939
Ar 0.3881312091670999 0.2764931748711028 -0.4801747232229558
Ar -0.7596480667772316 4.011410781630254 5.453414826675373
Ar -0.8300995086122487 1.233094246990931 -0.06628841837529784
Ar 1.224081223137605 2.087880231787189 -1.667489291548657
Ar -2.238845862059413 -1.694782604576015 1.028355717691139
Ar 2.148070916222898 0.6474845760398797 2.872068937596015
Ar 0.8199068809557803 -0.6149247799612807 1.036292954111879
Ar -2.419699423862094 -0.4883327804898369 -2.119784231940242
Ar 1.097094411366759 -0.5234940213360607 -0.5084013062698539
Ar -0.6053878928518562 1.077524170862895 -1.845848158140839
Ar -0.5715372702641441 -2.048310186454736 0.9521100608941118
Ar 1.21905673939642 0.4471141710211225 2.358141152150132
Ar 1.308845660481158 -1.439633755156939 -1.16368519546153
Ar 2.04692950845175 -1.011475131374885 -0.4211745676212316
Ar -0.8365277932283534 -1.713335399709711 -1.715959353120711
Ar -1.038309816100241 -0.5692932993895706 -0.009506621966192291
Ar 0.1230887911112631 2.088365570597918 -1.351754518192089
Ar -1.162733302901954 1.052582670559054 0.9312930578862822
Ar -2.871104129246196 -1.451894165849311 -1.83847222124074
Ar -0.4152922037061009 0.2892409493178055 0.2783948458383884
Ar -1.974527453998769 -1.009527967010471 -0.3021822654115178
Ar 2.612241549211074 -1.864008397279989 0.01427355082762102
Ar -0.9087857201604368 1.878182390008503 -1.088756250873426
Ar 1.197854262621263 1.238333315746831 3.101648976502512
Ar -2.91572188095798 -1.30618481030604 -0.7439744310850893
Ar -2.311965302746998 -2.129005485118318 -1.141950326710806
Ar -1.364678860929123 -1.789702419248896 -0.704723148803837
Ar 0.1944619294305171 -0.5837577658167142 0.1716921948079134
Ar -4.539958289449582 0.9560337978715892 4.744579146442642
Ar -1.851481923416442 -1.86353927614569 -2.107062489241232
Ar 0.2362265555788043 -1.588744371585291 -1.418463519482966
Ar 1.084169851155667 -2.303810724808238 0.6274372152234017
Ar -3.334117858611146 0.5649613791367363 -0.7675877646781347
Ar 1.91436948780241 2.283023250275243 -0.7541873158553269
Ar 0.1252413815239157 1.711416098063948 1.633873682111645
Ar -0.1835654654451876 2.053487938242856 -0.268491828610684
Ar 2.454791358257117 0.07575927410453115 -0.2005612022298068
Ar 2.863064247118102 -0.9004343442267221 1.60460134316201
Ar -0.6165754968420074 2.010533580750278 0.7662946799951793
Ar 1.084859521972795 -0.6027555689348472 2.080612680280371
Ar 1.828986930581787 -0.4889227793375855 -1.349918607655164
Ar -1.317778535389999 -1.324432765101471 1.500174659803733
Ar -1.292180716085662 0.8808844959098333 -0.9832473155689304
Ar -1.882007226234113 -0.688486384785383 0.7156447108722757
Ar 0.709125833366105 0.3362866714197721 0.5338794851011306
Ar 0.09254697297944203 -1.058130597286089 1.72018177238899
Ar -1.566738571221768 0.5875062976745499 1.864442486252401
Ar 1.561611502992349 0.9967225383751096 -2.00663534552573
Ar 2.077373708735271 0.9344986131750244 1.758357626478657
Ar -1.663587915738222 1.426344233083173 -1.850492188407383
Ar 2.072582301730387 -1.835833124957865 0.9802442287885925
Ar 1.434826671634417 0.5251751826367467 -0.2741020868291075
Ar -2.287006867168893 0.7237913600313268 -0.6177821494515106
Ar 1.564505264898897 -0.3283708119700194 3.045033679672989
Ar 0.112875136669363 -2.38103906762983 0.08424602626009352
Ar 0.6109793168121437 -1.489713688557576 -0.347675999500278
Ar -2.263635236203604 -2.014112447698746 -0.04781409678867784
Ar 0.7113680280587381 -2.43020705637699 -0.8752435285077054
Ar 2.299772505702529 1.579682602059163 -1.469899444085626
Ar -1.655429565714736 -0.1427683422614079 -0.8318995931751042
Ar -1.291493401910248 2.213658899610039 -0.08733069712256157
Ar 0.532964055885858 0.6749030238417846 1.583264251391779
Ar -0.9371087282733551 -0.8806756417622864 -1.057218262427598
Ar -2.955034812048594 0.781798384009779 0.2905496790647094
Ar -0.627906188285093 0.1156156518043788 -0.7222703697712121
Ar -3.464381297846182 -0.4353221117263113 -0.317232305475775
Ar 0.7817045924183229 -0.639779528772803 -1.692695893399726
Ar -0.571395708117688 -0.950099818599566 0.8516190137085651
Ar -0.07038496437954063 -0.08943073593084666 1.203965835527331
Ar 2.509582047382086 0.03232973709995282 1.097204179564071
Ar 0.169588277412371 -0.05205531133774761 2.286116914193759
Ar -0.02898267161060239 1.116946744847638 0.766673952151378
Ar 2.133496880999883 -0.1508646064809717 2.114103053007782
Ar -1.03320009768119 0.05809218482045259 -1.708460498311595
Ar 2.135077212505297 0.5306580230366079 -1.168749639323877
Ar 2.335303688756807 1.23318818997201 -0.3906522794993753
Ar -1.36102790451516 -0.8545819100080689 -2.198986962213594
Ar -2.663138098407106 -0.2832932968588207 -1.048015629773616
Ar 1.362967440520331 -1.271376309914089 0.3915606801723533
Ar 1.586446573573168 -2.057864878693637 -0.3124187445014247
Ar -2.736006782742413 1.265792962196239 -1.461351166578693
Ar -0.3988079706826412 -2.28861273565345 -0.885166364315906
Ar 0.2458232526284121 1.040819966774787 2.550898846034705
Ar 0.6298362682306547 0.2595190267593225 3.250586686029291
Ar -2.130611138658701 0.4055926943102163 0.9307032276040679
Ar -0.2955681190683657 -0.7570471912053515 -1.930026907117164
Ar -0.8120594064867668 -0.4209598447177912 1.954593356270041
Ar 0.5373121777712185 1.167635296459807 -1.711791609863533
Ar 0.3294567657504913 -1.514550944737988 0.7021916109629261
Ar 1.539072529410356 1.741415638393874 0.1149048241852706
Ar 1.647511144127171 -0.2583928449540082 0.4027766115822681
Ar 1.136865788516471 1.48405068010867 2.017356777319045
Ar 2.551064405359936 -0.8909288713549884 0.5190092695418796
Ar -0.4410075411433182 -1.447732364750601 -0.1759166327424838
Ar -2.951307354212958 1.594482937080854 -0.4224057611390376
Ar 0.8417713631690611 2.241836271814986 -0.5520872667306599
Ar -2.064706467177733 0.4291155859777184 -1.645723915163041
Ar -1.352279456667604 -2.63209737650384 -1.392358533317981
Ar 2.063584870539164 1.703341161219439 2.567636131463544
Ar 2.001011164315799 0.8194100194534332 0.5858240902017537
Ar -2.851577153100231 -1.099203938059993 0.3400905737562097
Ar -1.3566627502524 -1.561403178774159 0.3897425485448794
Ar -3.15320746144896 0.2979739189963139 -1.833038538766939
Ar -1.919260640428254 -0.4290865103352933 1.750873364584196
Ar -1.482841414678391 0.3975200554183432 0.0633301977040317
Ar 1.334107888887828 1.330904874606507 -0.9346775456972681
Ar -0.9913962282858172 -2.510782016438987 0.01723258918231692
Ar -1.963189653674961 1.354466274570911 0.2161386812478062
Ar 0.08233032139052684 -0.6839324720013895 -0.8757310244195338
Ar -1.638654082815981 0.1599599911960211 -2.613655449467186
Ar 1.572385506102594 0.4755732892156165 3.806206145421799
Ar -1.127154519310994 -0.01641666856042249 1.021739466949269