128
algorithm=ase_ga size=128 seed=0 index=0 energy=-508.0112922264917 step=1
Ar 0.83705660447943 0.09104747766680593 2.040185543454554
Ar 1.10555064254828 -0.6784157754412982 1.274178151660196
Ar -0.6729719932567685 3.905041657143619 4.662474149485129
Ar -2.538727361331211 1.677790541386967 -0.1611138832551278
Ar 0.568676309008762 4.355826720623327 -4.192666838479426
Ar -1.416983103257502 -2.600614153257888 1.673901419750488
Ar 2.520027958738015 0.9634823901628637 4.004797535859375
Ar 2.689026121138131 -0.2098884534218637 2.152374227515456
Ar -2.946263177714517 0.612922224044179 -2.685552137173325
Ar 3.584276052511299 0.7437917809296656 -2.016908390125553
Ar -2.229133595935629 1.991460546089131 -1.176983729683323
Ar -0.08834929940788246 -1.911895968280627 0.6117760448906583
Ar 1.837456377420755 0.3643738392969397 2.514469299670548
Ar 1.450847539451251 -1.699621494531812 -0.3060100013843279
Ar 0.5779029638168174 -1.608335600118863 1.366038856448698
Ar 1.874252691145353 -3.494963646170039 -0.2054182178750897
Ar -2.51512401557855 -1.727960652673104 -0.6266756186323388
Ar -0.454482178811671 4.793567304060375 -4.046205444373676
Ar -2.573925697029487 -2.398700715649485 0.2395657179148206
Ar -2.639344335903868 -0.4009244235627913 -2.325619970737759
Ar -1.669209354412969 -1.733760866843832 0.07017405322367432
Ar -3.176021339065291 -2.610226304475607 -0.7228956067959704
Ar 1.975709799627099 -2.285089371475178 2.434704302850064
Ar -2.554639525290146 3.017598029456091 -1.409853897104541
Ar 2.021730323792925 1.279366605734276 3.013266994658671
Ar -3.476522399510726 -1.077182637155959 -2.089892638599636
Ar -3.499054334414903 -1.605045852311758 -1.119729746713351
Ar -0.7458234676900676 -2.406435369062844 -0.08710608827509593
Ar 0.7261204378122544 -1.140645868428118 0.3438365024616803
Ar -3.783189384942543 0.9116150330054769 4.480878328807207
Ar -2.090104482653283 1.337618808282926 -2.895419086018684
Ar 0.1935681367306124 -2.923733573522644 0.2298724027395827
Ar 0.4377816655520927 -2.727218549728562 1.332272871751275
Ar -2.913986534078883 0.3519282894682736 -1.605955517210074
Ar 2.54988582352833 3.196616227936812 -2.141033680193583
Ar 1.867635951661229 0.1624388206484426 1.429382842993939
Ar -2.165718155751684 2.718591402526606 -0.3739947597302296
Ar 3.619705016362018 1.7945205911757 -1.683281182133037
Ar 3.190256255299933 -0.7263307251255164 3.017922690603206
Ar -1.617500234321158 3.049276573023826 1.310303215529849
Ar 2.140848588132537 -0.5621348055025266 3.116633708621075
Ar 1.701717345826377 -0.4224269780400368 0.4250476427025623
Ar -3.214997312838319 -2.000039910333786 1.063532786942369
Ar -2.191314145271792 0.899257169210718 -0.9299242302913394
Ar -3.493815870318377 -1.869083289402903 0.005282659823275646
Ar 2.303732585790265 -0.8325620851698656 1.317408360824914
Ar 1.658366110638084 -0.5950887576211915 2.173423756490894
Ar 0.6518148185828558 -1.015848039942003 2.260577239465815
Ar 2.966838191006209 1.870866807535474 -3.403180027031129
Ar 2.675146417035599 -0.1863324356709786 3.99870370184922
Ar -3.241093719311612 2.157707067525209 -1.773581786280446
Ar 0.8233877756584362 -2.186754893110465 2.258515081728359
Ar 2.759951430155427 1.153561531923038 -1.340161421861296
Ar -3.72504823766703 1.751664058643416 -0.1111306581828667
Ar 1.426165644819275 1.329460363152672 3.923109786526519
Ar 1.170784298322553 -3.267905658112227 0.6502622961320645
Ar 0.942691218511203 -2.18993660624906 0.5559472595208423
Ar -4.226510313310659 -1.128400521209686 -0.4007801971367623
Ar 1.119608663368825 -2.737208351242853 -0.3055009987995451
Ar 3.887976128924695 2.549039666086763 -3.31964924326777
Ar -3.201863471583561 0.8074569266242254 -0.01382541302601473
Ar -3.041115227069218 2.528200122982673 0.3419785154461787
Ar 1.549613007179449 -1.543922589548867 1.784901806376494
Ar -1.925945620472557 -0.1085548430898867 -1.266991809818873
Ar -3.968930440983935 2.864489314675183 -0.1605438293139588
Ar 0.2288174252567529 -2.939961412179044 -0.8874027688364717
Ar -3.824221270602931 0.5528896567531865 -0.9818340288658174
Ar 1.043026055218556 -2.200548228816255 -1.235463276576883
Ar -2.482873634385954 -2.923348445338811 1.224099818166924
Ar 1.062728327070966 -0.3222333183788729 3.038793658778622
Ar 2.477726800933555 -1.970264973017829 1.424661397422043
Ar -1.071780671992802 -1.802714550198285 0.9792832292313196
Ar -2.087479843675074 -0.7367951837346864 -0.341608307187019
Ar 2.761773450049816 0.3896712187556947 3.078376959400954
Ar -2.266532690744689 2.296017215172224 -2.267262670121192
Ar 3.849579268841166 1.564655400549811 -2.754316739139316
Ar 4.267652522463391 2.499384138540986 -2.262956026808443
Ar -1.951015862206581 0.4626691586621257 -2.195319572952818
Ar -2.822115467382889 0.03513954077666802 -0.6289206857296054
Ar 0.9122480160946554 0.3524393336184347 0.9490232109626802
Ar 1.973871328602527 -2.503255066338119 0.3636288898652117
Ar -3.153590863147071 1.366764493521689 -1.003395101808963
Ar 0.7575917533623517 -3.751298233035116 -0.288690012119558
Ar 1.473092053267286 -1.410875449538497 2.881487080221078
Ar 1.745381566576082 0.326034519672048 3.603566558178386
Ar -3.830312482122199 -0.109294086312342 -0.1053071166265089
Ar 2.055789156044808 -2.529655940546466 -0.7841997532421785
Ar -0.5926600503968356 -2.823004082361658 0.9737931716565861
Ar 2.150358263522301 2.263117040851021 -2.677846844488565
Ar 1.712022381858767 -1.492996255428386 0.7328205437164865
Ar 3.630302551233843 3.394829673599746 -2.564887991445654
Ar 3.07030744597106 -2.172563854233926 2.412826903561997
Ar 3.094978857400054 1.456603835596947 3.193311122771408
Ar 2.493939834580969 -1.627752873218387 3.308195924704293
Ar 1.527095471190502 -2.539931582136305 1.407167813359474
Ar -3.006339272456693 3.428751949869155 -0.379167615505364
Ar 1.615173736013037 2.645756138643879 -1.790529354761432
Ar -2.56092660061361 1.306249164372469 -1.916467620656205
Ar 1.301630862224732 -3.309700762109132 -1.191682154043218
Ar 2.302655405463025 2.030446630925555 3.771971974332257
Ar 3.484496493199468 2.90794638246176 -1.560027511910872
Ar -3.694594036598035 -0.4866034379096355 -1.186715059435866
Ar -1.593797021471646 -2.713064364746986 0.5768125494805361
Ar -3.645512407755352 1.107480829748092 -1.956743223021842
Ar -2.117914811294027 -1.90702637082404 1.172122621988516
Ar -3.170274455291811 -0.9192743840883529 -0.3556985792486837
Ar 3.204053145310549 2.407897053646129 -2.492716289868822
Ar -4.270699432098613 -2.240214879098701 -0.6722487645183237
Ar -2.838927252899036 -0.2154994944264577 0.4268415197892122
Ar 0.3518911354149079 -1.9614228945329 -0.3720478686287181
Ar -3.130520389436648 1.710466512245878 -2.769217782811875
Ar 0.9718249090333159 0.8200292813495575 2.958665010220263
Ar -2.61113101956314 -1.306623596267299 0.446360992385434
Ar -2.68446750987665 -0.8652492499648391 -1.323139953344905
Ar -0.3347989570411442 -2.070937109322324 1.758460189824876
Ar -3.748594603981691 0.004633303639547435 -2.182292844446022
Ar -1.298580614368981 3.038667532179006 0.2348408577029286
Ar -3.663359084797416 -0.9743923766332555 0.618417690257565
Ar 1.818270288194655 1.524245078942948 -1.895319292487553
Ar -3.810776772254207 -0.2079272929240192 4.51043055625904
Ar -3.153979742842769 2.414407648131995 -0.7375315987820734
Ar -2.006223814795348 2.262999873882432 0.6221313621263119
Ar 2.481073739364932 -1.272691265505173 2.300621650220021
Ar 2.609996161161898 2.219697830177794 -1.604698171379571
Ar 2.797728690352949 1.408569838453293 -2.403280255223778
Ar -3.55063620177376 2.010248931744316 4.549656783717123
Ar 1.314162863704844 1.055165534072606 1.855880813997416
Ar -2.335069318705965 3.35503820061813 0.5158728377808628
128
algorithm=ase_ga size=128 seed=0 index=1 energy=-515.8103867910301 step=2
Ar 0.2216316689230478 0.3588817188902788 -2.532457529683948
Ar -1.394540001104078 -2.49609219391309 -2.800479585134441
Ar -1.623114186624763 -1.913367378075987 -1.859428010541383
Ar 0.2546897567843476 -0.1218852379311254 0.8297455298633343
Ar -1.905144486012425 2.836262451691602 -2.887609355116239
Ar 0.6480998442530607 -0.4241977898601049 -0.1412406354970548
Ar -3.577464766746359 -2.229353628653017 2.746901609202836
Ar 2.092491879739729 -0.456433335004484 0.6367772751564643
Ar 1.725575199784867 3.123056631516434 -3.198755424705652
Ar -4.256433177650904 -2.364217244599512 3.618964622865276
Ar -3.91324034667288 -0.5311583664019229 3.318204706858344
Ar 0.7199172847272565 1.162113456197466 -0.8208786830765731
Ar 1.189926388137518 2.16892267660029 -3.250421957887434
Ar 1.410830795839161 2.968298419024392 1.180592469825676
Ar -1.278235493361635 2.760615497241055 -2.006101407683621
Ar -0.9829834781046071 1.708924269546833 -1.754529915424935
Ar -2.398647011910782 -2.851595807588398 -3.275864821110888
Ar 0.1987826619550023 -1.447084895151069 -1.58354869499246
Ar -0.4268282437353281 -1.799697900754215 -0.6350184859129852
Ar -2.190268446312086 2.184910311354783 1.638932336275983
Ar -3.376939616345617 -1.157390569204939 2.573656136673296
Ar -0.8813864103728356 -1.143124002173473 -1.449720537106412
Ar 1.697150918517448 1.26901269234964 -0.3933624086640465
Ar 0.06125618552529032 2.205169273385851 -3.197497846372425
Ar -1.45184755536054 2.71258684936867 -0.2707814763700772
Ar -1.482580641682716 3.361854423109661 -1.153050667143622
Ar 1.203104426443216 3.409443689898183 2.199267174514861
Ar 1.236393726044934 1.953649956203181 -1.375211648160068
Ar -0.9664855458193697 4.418208575524253 0.3703558182070636
Ar 2.437219245550544 1.718828625548223 2.189425202478789
Ar -1.718452016062591 3.862196313128569 -0.2217553720890967
Ar -0.3257412726681623 0.7575120547403433 -1.631026739909442
Ar 2.2600578402894 2.113894082503454 -3.035655437128868
Ar 0.224386908127788 0.2319006739278607 -0.8771603821751225
Ar 2.08933610392546 -0.5354608749231861 1.780416225404809
Ar 1.908086491280077 -5.208834091819949 4.034471799847121
Ar 0.6863864397752297 3.050792082525398 -2.755716360875163
Ar -2.040267274571455 2.929082029352483 2.425959913226255
Ar -2.647164313474744 3.200400151821257 1.443905776238581
Ar 1.587988445059634 1.510861616078881 -2.391877994216307
Ar -2.871049409014314 -3.579792124119699 -2.541148474595471
Ar -1.135749123857447 3.349779037856639 0.5349573487990703
Ar -0.2058341707664061 1.445672180395231 -2.454692902553068
Ar -2.802061265753408 -0.7227778903949412 3.419040663970243
Ar 1.835150179921678 -4.278936030064807 3.416009074924033
Ar -0.7104683237093438 2.535111279826466 -1.076137984438952
Ar 1.549278049047654 1.227918078717495 0.6746394578453311
Ar -1.767298511597319 -3.552761482755221 -2.678595880016792
Ar -3.122963965420275 -3.025333470680924 -1.585325493055779
Ar 1.711881877585449 1.17906447975565 -3.426559831409002
Ar -1.887844232844875 4.048299371928399 0.9572620245257116
Ar -2.609198598070823 -1.783987202762238 3.095409519107398
Ar -3.451676165674808 -0.667076785618463 4.32926170281197
Ar 1.329647866622324 0.2419170261008002 -0.6574750824597823
Ar 0.6733030189545299 2.083823980908207 -2.297527032219371
Ar -2.106194080711567 -2.664098687787335 -1.131302406673547
Ar 1.662859629476124 0.9309860874641055 -1.461705112005649
Ar 2.472971312920502 1.70424385925226 0.2669756304627672
Ar 0.5505967877223059 3.694830118034684 1.338699486449114
Ar -1.312635361433801 -3.014055718605012 -1.826684024545045
Ar 1.072023690662211 -0.8889046095316969 0.7380601713687661
Ar -3.536846726643443 -1.52594701991943 3.635829402734355
Ar -2.195671759855855 3.145324577392946 0.4372814617827603
Ar 4.213938569983679 -2.38397570113523 -4.311735592252348
Ar 0.5279471654462372 1.673817744497126 2.148835172539134
Ar 4.354005623581919 -4.899061155810699 -2.67746239476627
Ar 0.5121719284451758 2.697988541298141 1.738982829946968
Ar -0.451452816459683 2.982139535443825 1.335577947852639
Ar -0.4202341716364035 -0.04788298969937326 -0.03401703714957915
Ar -0.1252838122537694 1.94074126683725 1.245476779634628
Ar -1.01565383672737 2.089287998207007 -2.828686402697512
Ar -1.019365193452859 -2.742802447405025 -0.8045596992843035
Ar -1.810894383333337 3.950141701725469 2.063578291572604
Ar -2.201193954847066 -3.652031904168389 -1.650014807682701
Ar -2.41750673127012 3.023785717525591 -0.6631274944261741
Ar 2.850461961536115 0.09635202699783416 1.245527863269279
Ar 2.03813819505068 2.086896209327897 1.203216927837521
Ar 0.06151580491682416 1.815406435780918 -1.394710231347472
Ar 1.337311816749926 0.4595665634471447 -2.624863901021613
Ar 0.6998917590031588 0.819255350711949 1.24359100277945
Ar -1.585474915556341 3.082980083553935 1.440152468164725
Ar -1.552574760985305 2.277023305735896 0.7190633665429733
Ar -4.387875560351207 -1.477339739176049 2.934107973762258
Ar 2.747177188100057 -4.468735898730865 4.061057543579019
Ar -0.5282730373095318 2.49534128988035 0.314350503274195
Ar 2.382717571376349 0.5839177551556473 2.177527848645878
Ar -2.714726552118469 2.250005683097252 0.6904706846078674
Ar 1.524204507094511 1.263789080020103 1.825029891476806
Ar 0.9928822962325697 -0.2443847588334075 1.638196204137517
Ar -0.1087664218787948 -0.7926088482894642 -0.7821757366151668
Ar -0.1339902250582798 -1.070623706379642 0.2935856969815622
Ar -0.8756095286870257 3.969889013407332 1.409374615382935
Ar -1.530738261467401 -1.777934079418396 -0.7852923609258605
Ar 0.9530652640120686 1.928743426081015 1.177095054795092
Ar -0.8612638083318173 -0.04887319771790822 -1.063396838125767
Ar 1.797069260437664 0.3849078474025592 1.300967917701215
Ar 0.4668633656292163 2.765922850596724 0.6540086127974525
Ar 2.314629783784869 0.5728870628240885 0.3062470654807447
Ar -0.5910887614780219 -2.200630374266629 -1.673915411091643
Ar -2.326740998805652 2.964885424215288 -1.803472831381608
Ar 1.467663227602348 2.321549189899407 2.111689916358169
Ar 0.6306925533618435 -1.500879866858984 -0.3845636783211748
Ar -1.0707959309256 -0.9029078293455542 -0.3293320009436566
Ar 0.07148497207183853 3.496029466716103 2.310498119711297
Ar -2.296494058958842 -2.688299688576719 -2.206612534321476
Ar 0.68638534611136 1.109734825771029 -1.912095287434924
Ar -0.6396689065196604 3.424682500955142 -0.4200577734834973
Ar -0.06612373331716477 -0.3680611998553638 -1.760800316192096
Ar 0.7863580282775978 -0.6914889630144629 -2.356030429753005
Ar 0.3612876657494706 0.7337275619642326 0.1197298322772585
Ar -1.781961991508714 2.230177989993086 -1.178011038028442
Ar 0.6803523300296211 1.239741484108692 -3.026338549966265
Ar -0.9811535210932071 3.24693271568231 2.304773977188146
Ar 0.6677048499843027 2.647791973736967 2.818638330545961
Ar 1.615771778062957 2.595521554203745 -2.241760985154431
Ar 1.447448725039486 2.246546160996906 0.2537105138094794
Ar 2.572200069058722 -5.073020892719276 3.135451312617907
Ar 0.933163204910357 0.1388246284670986 -1.674926595299383
Ar 1.237035731175167 0.2138676911966072 0.4426767854019994
Ar -0.2959626882695656 2.398447676575551 2.363428520174111
Ar -3.145390514555275 -2.55574440946077 3.719708105250572
Ar -0.1304898277003299 3.688896089652567 0.5105843769477693
Ar 2.550820691963481 1.150566794176316 1.234894841802161
Ar -3.300593016329883 -2.560232454866307 -2.623233042060052
Ar -1.96770443597334 1.940056008664919 -2.234407995746856
Ar -1.102104636011541 2.151198670192913 1.710691304948742
Ar 0.9291749180417724 -0.7666403654894909 -1.146409475975899
Ar -0.2546175796123746 2.550043770263117 -2.14835133574184
128
algorithm=ase_ga size=128 seed=0 index=2 energy=-543.5974166233027 step=3
Ar -0.2619133454369698 -3.362039758925069 1.419448005569541
Ar -1.72283784594072 -1.23693145607642 -1.590478372693836
Ar -2.624100794392327 0.01000312186965034 -0.6153023401404593
Ar -1.926142402055493 -0.5155831237174654 0.04549011472811228
Ar -2.421209752392258 -0.338747937294012 -1.743822599906579
Ar 1.540888041516289 2.326701486570677 -0.8004832203851494
Ar 2.622321206640064 0.2005391503453497 1.419192326933643
Ar -3.03121929044716 0.5376563991994854 -1.475826335809322
Ar -1.914815885236453 0.6447710834044615 -1.413598866806132
Ar -2.749372714118607 -2.306508489839632 -0.4204235686704842
Ar -0.08218397128827012 -2.45742902495447 2.27318917236963
Ar -1.345719150596847 -1.183069449002566 -0.5603916378261025
Ar 2.384566002741831 2.734643792641483 -3.449553924035896
Ar 1.238611512454074 1.508366674538545 -0.1829576753928658
Ar 3.005451021296687 -0.1301263662202423 0.3514970319750518
Ar -1.863692825547144 -0.6329981715142239 1.128396718219933
Ar 0.7028473842332207 0.8800941187142721 -0.9617856869639587
Ar -2.356054233164631 -2.625394217226487 0.5950015113879058
Ar -2.388347642259571 -2.563366149901397 -3.169115724688404
Ar -3.321955356616337 4.413129061419033 4.166040632571076
Ar 2.232150184081196 1.248433774495161 1.491122490903477
Ar -0.808970398615221 -2.042712356214567 -0.1933060222819228
Ar -1.908205631648385 -2.585217609001806 2.764858995117436
Ar -0.7277220477636295 -0.7060451405701325 -1.37249211213582
Ar -1.306482233711408 -1.484533690470286 1.456187172584422
Ar 1.533819977566189 1.196079099931438 -3.927199889056458
Ar 2.359061832292238 -0.8471924816183817 0.93260381560372
Ar -0.8618454112607243 0.3775636975294328 -1.092774125461182
Ar -0.2194907730347666 -1.195640305788416 -0.5325188536107073
Ar 1.420046957046559 3.286244474637693 -3.37053055726573
Ar -1.093872052178862 -3.128004644189279 2.134151582127352
Ar 0.0535871673706032 -2.28413364544952 -0.8686291708817488
Ar 2.226226847126383 1.678500045900019 -3.21019199641794
Ar 2.677615118888015 2.366746528976517 -2.420749472780112
Ar 1.885217898590562 2.33898394371243 1.389386775493481
Ar -0.3674633434729666 -1.699337310255347 3.06965092200295
Ar 0.0886473513200545 -1.456614371197213 -1.644569921593386
Ar 3.010395091287448 0.9246029035441841 0.6724862255392666
Ar 0.4693439653981046 1.99008415020393 -0.7402389698050179
Ar -1.249275795408577 0.1445886374009152 0.62479582543458
Ar 1.142673478278786 1.505427058178358 -2.908334789512686
Ar -2.493441101667791 -2.002767987789593 -1.467574437620936
Ar -1.691536965541422 0.4822011224267722 -0.2995088762854651
Ar -3.166404534711714 -2.816585179114409 -1.342455621412956
Ar -1.5104299720754 -2.960854392088816 -0.07380487693160941
Ar 1.228066242384693 3.545401599029616 4.298951736960945
Ar -0.4608899478243123 -2.813117773547999 0.4448709016937347
Ar -0.5396969877322417 1.890508038609544 -0.1181672147743279
Ar 1.123830205654432 1.67988208210323 0.9199505700561987
Ar -1.329210116089165 -3.218148573053953 0.9991238574838378
Ar -3.43049016186096 -1.668607794285886 -1.065684886269624
Ar -1.749930828384497 -3.448179033000569 -2.912678077724518
Ar -2.112353294681806 -1.57493074145172 0.1178424520548111
Ar 0.2257876118398726 0.1305764608765283 -0.2452394888174098
Ar 0.8053244084591569 -1.312097926193967 0.8380252421419755
Ar 2.630018113487661 0.9623168382408905 -3.954972054457124
Ar -2.46013106770133 -1.106539681686278 -0.8128757461175875
Ar -1.295386534462051 -3.348521861755859 -1.906645130787646
Ar -1.39034977040018 0.2541017567204581 1.697211535582496
Ar -0.4482395624372992 -0.08826469350854761 2.18727841772149
Ar -0.04814321280269242 -0.6964396474975845 0.4281508277531371
Ar 0.6232472056626022 0.1815633683399126 2.181134333347892
Ar 0.6081911797819913 2.512564138841004 -3.005417763196172
Ar 0.2839680179802473 1.172858635619157 0.08603977962717527
Ar -0.9209810130344147 -1.515865011220462 -2.271341138480263
Ar 0.9822057945255249 0.6051291114993347 0.7109865235767835
Ar 1.407733553244265 0.431082386605632 -0.2975007051406699
Ar -1.317546907201542 -2.438748141659331 -2.794433740905551
Ar -0.7670172792822949 -0.542799781462073 1.274365844719275
Ar 2.250555805941587 3.257145249019272 3.938725734749502
Ar 1.798420875070367 2.86871232571984 -1.692591343718996
Ar -1.830632244288774 -2.473972845118558 1.627859647818334
Ar 1.951289438062818 0.1028037309779439 0.5732307933788746
Ar 1.975391814861724 1.501056364355544 -2.162568178520851
Ar 1.634781887554118 2.433800079975553 -2.665406673574081
Ar -3.363947683154186 -0.5551119942969555 -1.180553781958757
Ar 2.695715315955004 1.975620042439615 0.7305686818826203
Ar -0.4798161201460395 -2.504144671477046 -1.954587457942303
Ar 0.3274106289219457 -0.8141387743884343 2.662887741366883
Ar 0.2756812381660729 -0.595944933554228 1.492897291846918
Ar 0.187490121376694 -1.937696544349176 0.1834458209539641
Ar -0.2712280731686514 -1.514058036147422 1.069971720918095
Ar 3.94381429790699 -1.868795488903201 2.080657570004531
Ar 0.6861022110593793 -1.886374051063681 2.907176679561642
Ar 0.3378684921118319 -2.433242993611238 1.168098737440422
Ar -1.536815201625716 -2.322546283990846 -1.760038230806989
Ar -1.405869844066995 -2.163318607342342 0.6495952263738418
Ar -1.368436222298948 1.393287619278545 -0.7613955165753066
Ar -2.881550608992293 3.40699525065177 4.39805037893191
Ar 2.498230278900714 0.6338511192848714 -0.3268342059439703
Ar -2.513598474821368 1.134608224363443 -0.6389746731921923
Ar -1.432447619756317 -0.7243270485278508 2.203243887221051
Ar -2.421089096317854 4.335826784624807 4.830820464013589
Ar 1.753560970169801 2.340451528257604 0.2880067256693448
Ar 2.558604284128086 3.149822824919144 2.86350604925621
Ar 0.5094532152200988 -1.605149700745745 1.86635013090275
Ar -1.095492878039086 -2.036979834113759 2.336569309511028
Ar 1.974374353590201 1.168912033309518 0.4653390363589399
Ar -0.8247501062409271 -1.777893260790998 -1.23276035748976
Ar -0.8129444170303973 -2.710067963513224 3.130323076238076
Ar -3.002338211422943 -1.207208219917187 -1.988257931611219
Ar -0.2950312020879041 1.271793539414455 -0.9860759793966499
Ar -0.9295771919504643 -2.835056114082301 -0.9863316114689029
Ar 2.464765283280705 2.077323468321014 -1.376481407822244
Ar 2.415923293602591 1.741581678346041 -0.3447304420372879
Ar -2.09853143355584 -1.596445475057247 2.238508066070549
Ar 2.308575119082617 1.978210701262024 -4.283572655230167
Ar -0.1501650999761612 0.311770607340239 0.8463047309178146
Ar -2.333379734397258 -2.930400168869777 -2.130621938794931
Ar -1.74337419232582 -2.123921872736334 -0.7261968838374409
Ar -3.127979600371574 -2.228868531537606 -2.337411470184058
Ar -1.49181499276541 -1.503149481918727 3.167786279218743
Ar -1.67339760163952 -0.3123570837408367 -1.008424277109687
Ar -2.127357522594246 -1.752074566021721 -2.473516043628785
Ar -0.723445717415097 -2.399926760303617 1.419814983686555
Ar -0.7437162656439487 -0.6874387932761158 3.047773880811014
Ar -0.8176784214280347 -0.3046467979659614 -0.2576464450178854
Ar -2.329245624267055 4.122814232483293 3.732927556773164
Ar 2.183542141231015 3.386923855553359 -2.56833561977857
Ar 1.038158517709661 3.300511893350877 -2.342073314076316
Ar -1.086385239614128 -1.126585272214306 0.4449471106994065
Ar -0.4709823239311966 -1.210916384831341 2.084080420180793
Ar -0.6845437565708951 0.7748182228317948 -0.07094077780930051
Ar 1.403831657134305 2.256117458789424 -3.723291170239291
Ar 1.752448374926307 1.246354188858875 -1.09322577514482
Ar -2.076284430105781 -3.070405616478963 -1.078396124705415
Ar 1.084980541873595 1.985020861014579 -1.756721378184674
Ar -2.347753931776211 -1.633080913007099 1.157658116197385
128
algorithm=ase_ga size=128 seed=0 index=3 energy=-493.2103827235441 step=4
Ar 0.7027089627098325 0.5005302591996026 -1.781488400211573
Ar 1.469079965629869 1.931945569736768 0.8062170480696526
Ar -4.032953240279237 -2.857651540811514 -3.978353819354647
Ar 0.3725622293493762 -2.94643639332188 -0.8381509992945794
Ar 1.692270748866561 -0.5879733372777232 1.704814952049855
Ar 0.8890595877761851 -2.069344707968119 0.328902104773064
Ar -1.031678201542612 -1.466238372675255 -1.767907202944256
Ar 1.045858897127709 0.6741771638095861 -3.088311325504627
Ar 0.9687964629029118 1.477571355449241 -1.370437249012029
Ar -2.759499424043021 -1.844110220435626 3.39599881238457
Ar 2.855794826685905 1.100516863569114 2.354416508549149
Ar 1.676080874809999 -1.085201322381719 -2.623880457202454
Ar 1.858028964272157 -0.5128821931532357 -0.8746799242346656
Ar -1.725761410204076 -0.82248290581634 -1.195082933841255
Ar -0.4188614720082264 0.1546435758480924 -1.942579815036666
Ar 1.640503064967095 0.8913079050924171 -2.152690400858938
Ar -1.288926722852683 -0.4566086046289274 -2.158631889829818
Ar -1.61138366856966 0.2992342569296126 -2.890655952840533
Ar 0.5916068350083856 -0.5043980192459846 1.368180176793101
Ar 0.5868293898439465 -0.03313785573927717 0.2917818439202227
Ar -0.00953007620334019 1.554104632522833 -0.7398973356607317
Ar 1.895569269674519 -1.645513171556885 0.416626452653822
Ar -3.004770094054397 -2.737053155869874 4.102059076201321
Ar -2.405764862751868 2.095170405863681 1.974787336652935
Ar 1.153193043356398 -1.151513546267438 -0.2362924364295982
Ar -4.332269204399092 -3.416490246552174 -3.052601469108168
Ar -3.274929391167954 -3.472940551604806 -3.424589389818478
Ar -1.116156375555699 -2.552785857650492 3.093042213520411
Ar 1.430854813943263 -0.6719922574297253 0.6402726744953501
Ar -2.091516443992188 3.842176682145594 3.26671087734535
Ar 2.044775800828291 0.9639696714420232 0.7008227086134289
Ar 1.165652836765802 1.208185494988863 1.572895527482189
Ar 2.071568240077441 -1.551152843595155 -0.7031264976361501
Ar -2.877262390657605 -2.837366654655116 3.0118936387497
Ar 2.340086751920682 4.153596045080875 3.368748738256615
Ar 0.1777691505570339 -1.921245139515065 -0.4814027045910984
Ar 4.126628933123061 3.492698423593229 -0.875802419565695
Ar -0.02386697116880251 -1.431162124035832 -1.418873261503179
Ar -3.731995174596604 3.833462605420694 1.866397932105879
Ar -1.142566806478246 -1.246243428246641 -2.89160931018528
Ar -3.008907508500743 3.007212492980799 1.835446039613789
Ar 1.115465101266553 -1.493220643742418 1.254435553927377
Ar 2.711543444633156 -0.6232418645619919 -2.576308830974109
Ar -4.071238062899674 -2.709182793049179 4.323245911050356
Ar 0.2026667420415312 2.207502460184278 -1.725057912678935
Ar -3.295978399710122 2.240535138565871 2.621506086751975
Ar -2.065035041777931 -2.225382930180089 2.606303840275511
Ar -1.021223542194926 0.9760009577543607 -2.284431590364199
Ar 0.9983966831605668 0.9982414403544881 0.4836468613699348
Ar -0.3284092143302161 1.759255767187102 -2.648198737368061
Ar -2.044999988798953 -2.648851600815743 3.634047740523464
Ar -3.477719668834547 3.306956665317844 2.809493291744769
Ar 2.242185213651992 -1.069745765465854 -1.690287984915265
Ar -2.87763253905762 3.187063812605215 3.721407581091335
Ar 0.3437454866729971 -0.4709249182194735 -1.573312824339104
Ar 4.213472046416575 3.716981578220362 -2.682657048869581
Ar -2.418654061695562 2.91870522155537 2.749021384324528
Ar -0.2954248542381323 -0.8739277109857978 -2.318029831199
Ar -1.346810228452467 -3.4573942071914 3.740567693260666
Ar -0.1105523058130438 1.17623548295657 -1.726495893236479
Ar 4.12085055701102 2.960104001297917 -1.864195652393346
Ar 2.216523693185822 1.594062443307717 1.581905154808134
Ar -2.942400675957033 -3.861814214931729 2.678818030528741
Ar -0.5911666831592393 -0.1108542854647744 -2.997065219298094
Ar 2.960329751049397 0.7878307648676344 1.282626979436159
Ar -2.097725087987321 -0.6752827671051426 -2.963376877383179
Ar 1.813906591797322 -0.00985087133333354 -2.746407459673405
Ar -2.322053895542647 -0.2461108327620903 -1.967921885813065
Ar -0.6749706030847655 -0.5528049049281805 -1.192816332429144
Ar 1.623403004407449 0.5333936194641173 -1.128305837064911
Ar 1.048408371707187 -1.22300735248812 -1.261068301437793
Ar 1.601198048289414 -1.930259899095998 -1.845794088923571
Ar -1.343621852515035 -0.4213295694550904 -3.709430683170712
Ar -2.041470472560159 -1.352285366406014 -2.123962608646218
Ar 1.624597049075105 0.1966233859865222 -0.002432434001360194
Ar 0.5912221183150028 -0.2397698500574598 -2.612679288213136
Ar 0.3536810203612255 -1.110405109940426 0.4955574793327823
Ar -3.625841529488962 -3.440600939650229 3.521067021342176
Ar -2.276130237074559 -1.962439090537527 4.432716678892652
Ar -2.501909313831936 -3.642764178055951 3.680048378077905
Ar 0.2691236208845048 1.384997888169513 -3.508164926373482
Ar -0.4984323079923519 -2.376422266567752 -1.29723521256882
Ar 0.5803042524223818 -2.266274781938292 -1.672589809475505
Ar 4.748432337689428 3.88622691320065 -1.710401001938488
Ar 2.564923759719214 0.2501005492944958 -0.5833869470927733
Ar 3.850950176522677 -3.55649447765095 2.934067794768061
Ar -4.093587312372296 2.786284120033963 2.067145929836685
Ar -0.05772217325495612 0.3687239134689323 -0.9379222121682227
Ar 1.198592674607365 -2.185032973694741 -0.7489444112868836
Ar 3.624826074906669 3.961027221438529 -1.763640896500148
Ar -2.173808847143905 3.829931963924725 -1.605538219999757
Ar -4.500005591425881 2.219122485915499 1.200650577654971
Ar 2.349095413230371 -0.7108077281052045 0.04050889036613999
Ar -1.683561910741702 -1.629487957612618 3.51666527071551
Ar 0.3352287068391007 1.689681437513952 0.9550701395161159
Ar -3.13820427499901 4.215346101393454 3.326051124828796
Ar 0.04308719326512556 0.7133217570874379 -2.695652578081694
Ar 0.1286857147989624 -0.8533028837875866 -0.5353124008338309
Ar -2.657406484753225 -3.015619032267065 1.976300550164083
Ar 0.268228190588966 0.5758426989179199 1.185289856822136
Ar 4.398637476304259 -4.242808036434995 2.234829838058535
Ar -0.04100663635546134 0.8983911548590352 0.156721668611721
Ar 0.8040957286993095 0.8567939746005763 -0.5253696254315871
Ar 0.7296350208862669 1.494541524232823 -2.428345921454436
Ar -0.2483845841770254 -1.967046880283974 -2.358067376390132
Ar -3.659642430038055 -2.519372294006223 -2.974427765761496
Ar 1.312167795977836 0.2464987232258164 1.123162554089493
Ar 0.7932081911367486 1.888279712927123 -0.08541591820542807
Ar -0.4757831347890218 -0.1142546863090985 -0.04552454063488631
Ar -2.701097679595024 3.936046468935549 2.336742736512653
Ar -2.523512734597617 -0.9793118869555866 4.015264906147412
Ar -3.764032874150888 -2.32216865322915 3.34454806720914
Ar -3.763129856115984 3.045125967634722 1.040598591634069
Ar 2.044713911581626 0.5261086306824735 1.844348451432422
Ar -0.7929894538653138 0.9257730989065573 -3.363781040926943
Ar -1.1879276899363 -2.370534147753407 4.215497758016175
Ar 4.329891338937551 -3.405586828564506 -4.456629441465946