128
algorithm=ssw size=128 seed=0 index=0 energy=-508.0112922264917 entry_id=0 visits=7
Ar 0.83705660447943 0.09104747766680593 2.040185543454554
Ar 1.10555064254828 -0.6784157754412982 1.274178151660196
Ar -0.6729719932567685 3.905041657143619 4.662474149485129
Ar -2.538727361331211 1.677790541386967 -0.1611138832551278
Ar 0.568676309008762 4.355826720623327 -4.192666838479426
Ar -1.416983103257502 -2.600614153257888 1.673901419750488
Ar 2.520027958738015 0.9634823901628637 4.004797535859375
Ar 2.689026121138131 -0.2098884534218637 2.152374227515456
Ar -2.946263177714517 0.612922224044179 -2.685552137173325
Ar 3.584276052511299 0.7437917809296656 -2.016908390125553
Ar -2.229133595935629 1.991460546089131 -1.176983729683323
Ar -0.08834929940788246 -1.911895968280627 0.6117760448906583
Ar 1.837456377420755 0.3643738392969397 2.514469299670548
Ar 1.450847539451251 -1.699621494531812 -0.3060100013843279
Ar 0.5779029638168174 -1.608335600118863 1.366038856448698
Ar 1.874252691145353 -3.494963646170039 -0.2054182178750897
Ar -2.51512401557855 -1.727960652673104 -0.6266756186323388
Ar -0.454482178811671 4.793567304060375 -4.046205444373676
Ar -2.573925697029487 -2.398700715649485 0.2395657179148206
Ar -2.639344335903868 -0.4009244235627913 -2.325619970737759
Ar -1.669209354412969 -1.733760866843832 0.07017405322367432
Ar -3.176021339065291 -2.610226304475607 -0.7228956067959704
Ar 1.975709799627099 -2.285089371475178 2.434704302850064
Ar -2.554639525290146 3.017598029456091 -1.409853897104541
Ar 2.021730323792925 1.279366605734276 3.013266994658671
Ar -3.476522399510726 -1.077182637155959 -2.089892638599636
Ar -3.499054334414903 -1.605045852311758 -1.119729746713351
Ar -0.7458234676900676 -2.406435369062844 -0.08710608827509593
Ar 0.7261204378122544 -1.140645868428118 0.3438365024616803
Ar -3.783189384942543 0.9116150330054769 4.480878328807207
Ar -2.090104482653283 1.337618808282926 -2.895419086018684
Ar 0.1935681367306124 -2.923733573522644 0.2298724027395827
Ar 0.4377816655520927 -2.727218549728562 1.332272871751275
Ar -2.913986534078883 0.3519282894682736 -1.605955517210074
Ar 2.54988582352833 3.196616227936812 -2.141033680193583
Ar 1.867635951661229 0.1624388206484426 1.429382842993939
Ar -2.165718155751684 2.718591402526606 -0.3739947597302296
Ar 3.619705016362018 1.7945205911757 -1.683281182133037
Ar 3.190256255299933 -0.7263307251255164 3.017922690603206
Ar -1.617500234321158 3.049276573023826 1.310303215529849
Ar 2.140848588132537 -0.5621348055025266 3.116633708621075
Ar 1.701717345826377 -0.4224269780400368 0.4250476427025623
Ar -3.214997312838319 -2.000039910333786 1.063532786942369
Ar -2.191314145271792 0.899257169210718 -0.9299242302913394
Ar -3.493815870318377 -1.869083289402903 0.005282659823275646
Ar 2.303732585790265 -0.8325620851698656 1.317408360824914
Ar 1.658366110638084 -0.5950887576211915 2.173423756490894
Ar 0.6518148185828558 -1.015848039942003 2.260577239465815
Ar 2.966838191006209 1.870866807535474 -3.403180027031129
Ar 2.675146417035599 -0.1863324356709786 3.99870370184922
Ar -3.241093719311612 2.157707067525209 -1.773581786280446
Ar 0.8233877756584362 -2.186754893110465 2.258515081728359
Ar 2.759951430155427 1.153561531923038 -1.340161421861296
Ar -3.72504823766703 1.751664058643416 -0.1111306581828667
Ar 1.426165644819275 1.329460363152672 3.923109786526519
Ar 1.170784298322553 -3.267905658112227 0.6502622961320645
Ar 0.942691218511203 -2.18993660624906 0.5559472595208423
Ar -4.226510313310659 -1.128400521209686 -0.4007801971367623
Ar 1.119608663368825 -2.737208351242853 -0.3055009987995451
Ar 3.887976128924695 2.549039666086763 -3.31964924326777
Ar -3.201863471583561 0.8074569266242254 -0.01382541302601473
Ar -3.041115227069218 2.528200122982673 0.3419785154461787
Ar 1.549613007179449 -1.543922589548867 1.784901806376494
Ar -1.925945620472557 -0.1085548430898867 -1.266991809818873
Ar -3.968930440983935 2.864489314675183 -0.1605438293139588
Ar 0.2288174252567529 -2.939961412179044 -0.8874027688364717
Ar -3.824221270602931 0.5528896567531865 -0.9818340288658174
Ar 1.043026055218556 -2.200548228816255 -1.235463276576883
Ar -2.482873634385954 -2.923348445338811 1.224099818166924
Ar 1.062728327070966 -0.3222333183788729 3.038793658778622
Ar 2.477726800933555 -1.970264973017829 1.424661397422043
Ar -1.071780671992802 -1.802714550198285 0.9792832292313196
Ar -2.087479843675074 -0.7367951837346864 -0.341608307187019
Ar 2.761773450049816 0.3896712187556947 3.078376959400954
Ar -2.266532690744689 2.296017215172224 -2.267262670121192
Ar 3.849579268841166 1.564655400549811 -2.754316739139316
Ar 4.267652522463391 2.499384138540986 -2.262956026808443
Ar -1.951015862206581 0.4626691586621257 -2.195319572952818
Ar -2.822115467382889 0.03513954077666802 -0.6289206857296054
Ar 0.9122480160946554 0.3524393336184347 0.9490232109626802
Ar 1.973871328602527 -2.503255066338119 0.3636288898652117
Ar -3.153590863147071 1.366764493521689 -1.003395101808963
Ar 0.7575917533623517 -3.751298233035116 -0.288690012119558
Ar 1.473092053267286 -1.410875449538497 2.881487080221078
Ar 1.745381566576082 0.326034519672048 3.603566558178386
Ar -3.830312482122199 -0.109294086312342 -0.1053071166265089
Ar 2.055789156044808 -2.529655940546466 -0.7841997532421785
Ar -0.5926600503968356 -2.823004082361658 0.9737931716565861
Ar 2.150358263522301 2.263117040851021 -2.677846844488565
Ar 1.712022381858767 -1.492996255428386 0.7328205437164865
Ar 3.630302551233843 3.394829673599746 -2.564887991445654
Ar 3.07030744597106 -2.172563854233926 2.412826903561997
Ar 3.094978857400054 1.456603835596947 3.193311122771408
Ar 2.493939834580969 -1.627752873218387 3.308195924704293
Ar 1.527095471190502 -2.539931582136305 1.407167813359474
Ar -3.006339272456693 3.428751949869155 -0.379167615505364
Ar 1.615173736013037 2.645756138643879 -1.790529354761432
Ar -2.56092660061361 1.306249164372469 -1.916467620656205
Ar 1.301630862224732 -3.309700762109132 -1.191682154043218
Ar 2.302655405463025 2.030446630925555 3.771971974332257
Ar 3.484496493199468 2.90794638246176 -1.560027511910872
Ar -3.694594036598035 -0.4866034379096355 -1.186715059435866
Ar -1.593797021471646 -2.713064364746986 0.5768125494805361
Ar -3.645512407755352 1.107480829748092 -1.956743223021842
Ar -2.117914811294027 -1.90702637082404 1.172122621988516
Ar -3.170274455291811 -0.9192743840883529 -0.3556985792486837
Ar 3.204053145310549 2.407897053646129 -2.492716289868822
Ar -4.270699432098613 -2.240214879098701 -0.6722487645183237
Ar -2.838927252899036 -0.2154994944264577 0.4268415197892122
Ar 0.3518911354149079 -1.9614228945329 -0.3720478686287181
Ar -3.130520389436648 1.710466512245878 -2.769217782811875
Ar 0.9718249090333159 0.8200292813495575 2.958665010220263
Ar -2.61113101956314 -1.306623596267299 0.446360992385434
Ar -2.68446750987665 -0.8652492499648391 -1.323139953344905
Ar -0.3347989570411442 -2.070937109322324 1.758460189824876
Ar -3.748594603981691 0.004633303639547435 -2.182292844446022
Ar -1.298580614368981 3.038667532179006 0.2348408577029286
Ar -3.663359084797416 -0.9743923766332555 0.618417690257565
Ar 1.818270288194655 1.524245078942948 -1.895319292487553
Ar -3.810776772254207 -0.2079272929240192 4.51043055625904
Ar -3.153979742842769 2.414407648131995 -0.7375315987820734
Ar -2.006223814795348 2.262999873882432 0.6221313621263119
Ar 2.481073739364932 -1.272691265505173 2.300621650220021
Ar 2.609996161161898 2.219697830177794 -1.604698171379571
Ar 2.797728690352949 1.408569838453293 -2.403280255223778
Ar -3.55063620177376 2.010248931744316 4.549656783717123
Ar 1.314162863704844 1.055165534072606 1.855880813997416
Ar -2.335069318705965 3.35503820061813 0.5158728377808628
128
algorithm=ssw size=128 seed=0 index=1 energy=-631.1924262568341 entry_id=1 visits=2
Ar 0.03572012830231833 -0.6070255942008734 1.878546493779324
Ar 0.9084126420580473 -0.7209174729757457 1.251788606565889
Ar -0.2726963429804983 0.416032992825647 2.007491227109861
Ar -1.917107134682794 2.395421713421354 -0.8556908579521281
Ar -0.6976133867770468 1.277969468178895 -0.2796848073871546
Ar -1.342060429359189 -1.897199194590792 1.660242490161741
Ar 2.268802572062064 0.7055137514683638 3.126305379155551
Ar 2.515547680307286 0.6768988771420326 1.299601981132597
Ar -1.618568020682092 0.4401961021503371 -2.637999978713763
Ar 1.250756988867447 -0.991373604758263 -1.535993484585262
Ar -1.799956857083816 2.508152784024596 -1.927244293630131
Ar 0.4322498154659629 -1.6912564721278 0.9437767332838009
Ar 0.8524608797958978 0.1303793608827417 2.07131892234664
Ar 0.7844977436325004 -0.9796066210844873 0.1931702908109922
Ar 1.190689107623407 -2.278075616827517 1.50021815437456
Ar 1.655346379684052 -2.446396242238042 -0.3145805430123915
Ar -1.858156021940006 -1.094992222896247 -0.2975338329071547
Ar -0.6933071256253359 0.1620481531530361 0.9639095784127795
Ar -1.658696686618263 -1.391368387869199 0.7378142873661038
Ar -0.9359541517868318 -0.145013546403405 -1.92983446031133
Ar -0.9765012253505743 -0.7743089711438704 0.2454067445517536
Ar -2.197241744269802 -2.077715580668681 0.09633969690518286
Ar 2.582454926068235 -1.319116741189751 2.125991608755376
Ar -2.772785755464698 2.831303263081132 -2.374647640524584
Ar 1.211820174550179 1.067568187272166 2.551654372956218
Ar -1.627666823347609 -1.24468061004821 -1.385754211310095
Ar -2.547521447114072 -0.7318577189891674 -1.028756069466253
Ar -1.117358724400419 -1.860480974441879 -0.174836600310659
Ar -0.06409116400658969 -0.7194724865778276 0.8027510446071391
Ar -0.4450436275334151 -0.3287432309960442 2.815261212780417
Ar -1.290906180307649 1.421902783150514 -3.062472650993281
Ar -0.2550426805889749 -2.483125679757771 0.1775423250841011
Ar 0.7287513148093098 -2.7166266126311 0.6025270525361041
Ar -1.654294699246047 0.6136045352204759 -1.591064402616126
Ar 0.470090883973788 1.463295717163815 -0.3194496197432321
Ar 1.571827764246063 1.187940619400823 1.495792197724251
Ar -2.389809785444061 3.276800767952788 -1.402799681050928
Ar 1.053572844153642 0.1624685994096181 -1.602693002944712
Ar 2.986395823032009 0.4366037702391838 2.261175524993956
Ar -2.957454566496273 3.946858760622148 -0.0760597908401168
Ar 1.539117907283093 -0.6818819514585643 2.231289934357355
Ar 1.926179298384898 0.7052819430936328 0.3731202665460046
Ar -2.009714743221135 -1.004827617579755 1.690478409794661
Ar -1.238535509699104 1.598601911434065 -1.215963545801312
Ar -2.559287275388479 -0.8286098152179283 0.6140509089595596
Ar 2.633016398810779 -0.1317841184872872 0.538467543880242
Ar 1.520526428852831 0.1447326496786794 1.194994470463841
Ar 0.7419704601123811 -1.431577827532585 2.03745960235698
Ar -0.01210897976954436 -0.3676629559591618 -0.2365955925074665
Ar 2.434363456318478 -0.3749212945944321 2.761431270424015
Ar -2.94985356495491 1.69904143504543 -2.340517835259583
Ar 2.330811097841837 -2.213931533299696 1.47113047175634
Ar 1.951744852145443 -0.1620573266627735 -0.337415291715894
Ar -2.827072634803471 1.938977121055949 -0.3835551351991437
Ar 1.228513422964149 0.9315371939999045 3.637425319811095
Ar 1.797543267618206 -2.837541919601892 0.7303810094736578
Ar 1.453654698822148 -1.787827538124819 0.5417214776863695
Ar -3.066301215026944 -0.1929276438209969 -0.1803597946794114
Ar 0.6920635086190235 -1.980541581580688 -0.1660275879107908
Ar -0.7233357810491169 -0.9937241035895958 -0.8235643853463261
Ar -1.772362008073137 1.702743686132957 -0.04154125528270321
Ar -3.088233510792809 2.975840725030025 -0.6205986702265052
Ar 1.748868355120086 -1.329327225446464 1.442169417801879
Ar -0.7070238347447447 0.5250160228483862 -1.111368102577468
Ar -3.77058552319029 2.154830995256013 -0.9448885558888415
Ar -0.1966924291028576 -2.130958395799278 -0.8542580698738256
Ar -3.302537435935019 1.223315898383492 -1.347443926141589
Ar 0.407521946791497 -1.2341599112341 -0.8948032910903463
Ar -2.388009025539576 -1.997623799200194 1.217834615632781
Ar 0.6159670713384613 -0.6365140470457863 2.81174831863332
Ar 2.735701392753989 -1.192227890333296 0.9890794846252343
Ar -0.6531816915128636 -1.690390351772649 0.833334090704019
Ar -0.9096775814238178 0.1937892772233406 -0.1094035781805503
Ar 1.907074721886044 0.368759272437721 2.159290945479112
Ar -2.114072252167703 2.175591108679591 -2.956124311640371
Ar 0.003425548618509387 -0.3567235860898623 -1.358154143058653
Ar 0.08723676367003891 0.5832268720748374 -1.892506105246001
Ar -0.8423979656604625 1.081141644426639 -2.103829055925014
Ar -1.625546626575 0.792484573208213 -0.5656438460509076
Ar 0.3772540618900061 0.2077347284753481 1.136627423812075
Ar 2.545438963304885 -1.064109573621011 -0.1016780674991311
Ar -2.281882019552763 1.387109665459243 -1.140266534447376
Ar 0.6173798568302813 -2.966071739019988 -0.5234701282608352
Ar 1.674774964112277 -1.837003835905671 2.410412253390636
Ar 1.411919842577013 0.03655089696182851 3.054656890615455
Ar -2.592080414030592 0.9048196544761848 -0.1069438845928481
Ar 1.53595090067857 -1.316804653960097 -0.4899120407130103
Ar -0.1785665386896156 -2.575808476975723 1.265026074210005
Ar 0.01341141237668171 0.6227721733097146 0.2316744390978912
Ar 1.752793597207052 -0.7262133515998405 0.5642942183227968
Ar -0.1658254768918008 1.452968734600281 -1.242925182244842
Ar 3.393859096955326 -0.002733425727891268 1.299150148841136
Ar 2.358019641061949 1.359028082839678 2.230513370990336
Ar 3.375764037477844 -0.5928174865563621 2.209331044928989
Ar 2.482608611415152 -2.05810328390416 0.3624532788168102
Ar -3.554821427274595 3.028189446785257 -1.62437829915995
Ar 0.9193499625978062 1.064301523209391 0.639343752267047
Ar -1.889387356823411 1.473133446567238 -2.15011202710222
Ar 1.027591970803768 -2.091092409847953 -1.18648864803091
Ar 1.847729140688679 1.731837259930909 3.151148032697026
Ar 0.8852348870523659 1.237575556158489 -1.395420282421794
Ar -2.523174369516181 0.3296432775213245 -1.021415967746933
Ar -1.362075646497133 -2.487960697297364 0.7174767853218498
Ar -2.624537682036313 0.6653311913562583 -2.070592912733983
Ar -0.9363630036942249 -0.8336058947546371 1.418093925038737
Ar -2.014556347031729 -0.06998841506782272 -0.06119480303120761
Ar 0.3033422798245756 0.5097483266410978 -0.8009739338971771
Ar -2.964699875013507 -1.352317628632012 -0.2393899247929861
Ar -1.59767263209774 0.7595735829235731 0.5313106126870099
Ar -0.1609624169654192 -1.408351981662845 -0.02271791602241592
Ar -2.373650359576933 1.104660225031293 -3.079446024296337
Ar 0.3671100460763186 0.4539057859003415 2.975393486850108
Ar -1.685515279460708 -0.2691724442115372 0.9305335871692015
Ar -1.491983840678598 -0.2466646036252757 -0.9617930578208181
Ar -0.2880419955789796 -1.636703626041214 1.817638044581267
Ar -2.061669013164787 -0.3224660558372887 -1.918885822121318
Ar -2.187408676017898 4.228435712545493 -0.8529046069681322
Ar -2.626238677694946 0.2736482419431135 0.78478890589397
Ar 0.9833151443071543 0.05540416657754225 0.2723531939540562
Ar -1.104429841581849 -1.136583120297015 2.433105691142925
Ar -2.803804911254142 2.261714748471369 -1.444085245226065
Ar -2.091236970947096 3.289442650612124 -0.2837564440490872
Ar 2.393731797244378 -0.3853348285808282 1.599556454866156
Ar 1.310801279583904 0.7204652228233346 -0.524701608246142
Ar 0.9661785003862087 -0.3630991108106399 -0.693272084613179
Ar -0.112298218650095 -1.417145251653389 2.848024533089252
Ar 0.5059540595279904 1.126655602634335 1.700829886605439
Ar -3.223607092286159 3.962519643306635 -1.147814830548414
128
algorithm=ssw size=128 seed=0 index=2 energy=-664.0513579843846 entry_id=2 visits=2
Ar -0.3669899291963425 -0.3260446004875873 1.416279277902394
Ar 0.6058490790891899 -0.3524413782296275 0.8555455742617747
Ar -0.2820725200405916 0.7106886544587949 1.692869714187604
Ar -1.24976097699617 1.145985483538176 0.2096127859080114
Ar -0.9472067026727454 1.294877779628195 -0.8012178670831805
Ar -1.616365773510026 -1.73521568767555 1.09683413484511
Ar 1.921128963087134 1.277359254840813 2.921729003163132
Ar 2.403048678068434 0.8200353379535942 1.219378927465581
Ar -1.334059703711037 0.2313669089223723 -2.339605848181888
Ar 0.5734661277232452 -0.6189982008966539 -1.721395489858026
Ar -2.242129081289482 2.512414166804148 -1.03606752679622
Ar 0.2267221606173014 -1.377289358999329 0.7477394286562834
Ar 0.6569680479678055 0.1394288045779463 1.818121270685186
Ar 0.6790355219393902 -0.7471677536462308 -0.1426961699786709
Ar 0.2685668925377336 -1.995407452491919 1.680547269062849
Ar 1.497196532762393 -2.54407154044257 0.2830499096445707
Ar -1.719073085734014 -1.285718998147913 -1.093913907848773
Ar -0.5376736498847006 0.4814637560844159 0.6870680093258057
Ar -1.763993069206108 -1.379560983385728 0.03215755965503495
Ar -0.4522324687895652 -0.3485800055687735 -2.047456768509248
Ar -1.026287018828028 -0.7555593682277929 -0.3937364269182246
Ar -2.060137209540589 -2.237256544952852 -0.6015422284207204
Ar 2.172606457650031 -1.0700394422511 2.258025459617459
Ar -2.538850067060291 2.375322262565779 0.04646459202640448
Ar 0.629415794691165 1.210958243033025 1.926851935012561
Ar -1.518497763973161 -0.8577651904672127 -2.124818448007305
Ar -2.426578471819899 -0.5575888399877135 -1.44214237986336
Ar -0.9993768379188562 -1.92554779109111 -0.6341078619810472
Ar -0.3339179101244201 -0.5457404548152268 0.3543358873913894
Ar -0.7724599612549953 0.02264487138025268 2.38650988878524
Ar -1.275416286518881 1.197556569313083 -2.999744478091697
Ar -0.2656730397331719 -2.390637716746716 0.004867024149956185
Ar 0.4856649122937854 -2.527875578967143 0.7698654222303711
Ar -2.078062208463743 0.4782614880877254 -1.597563761360016
Ar 0.4713099787566451 1.861724333998514 -0.769385223968895
Ar 1.379858367773793 1.406759662118492 1.122122864598217
Ar -1.556123403770292 2.044929420350082 -0.310081588440995
Ar 1.468148188048544 0.08474499198193049 -1.727622585777461
Ar 2.748965236063861 0.70898998376108 2.255070614160434
Ar -1.587282042610827 2.910260927708656 0.3594680827735394
Ar 1.260664233874388 -0.5165282930616529 2.461418313392983
Ar 1.92216300739473 0.9657099500613486 0.2660028862366292
Ar -1.411146682941118 -0.7517786008690517 1.899963076300546
Ar -1.218587530951145 2.181033756316659 -1.384405558678145
Ar -2.660796354563086 -0.8458691492278716 0.3760075357183111
Ar 2.303647576572181 -0.04853983447941276 0.5459479942977319
Ar 1.448016241459413 0.2970757280410746 1.1039720159229
Ar 0.4119546602526609 -0.9329499705188994 1.793074943182632
Ar 0.254236826473824 0.2423699998221495 -0.0006902773477555104
Ar 2.056116143016273 0.1312721665750894 2.86524979723165
Ar -2.8890408638978 1.279280329468092 -1.722636687424796
Ar 2.10111123733777 -1.921859044467118 1.587479080775289
Ar 1.651196405570671 -0.5987652554511332 -0.7023710296508441
Ar -2.297027217722334 1.2944154626811 -0.03750059468824295
Ar 0.8051602807497737 1.541614369160331 2.97614480046914
Ar 1.221796118210871 -2.609798183315524 1.588640460067722
Ar 1.208625913972278 -1.720944648804229 0.9721896579204702
Ar -3.128427383700354 -0.3243141364750743 -0.5926776927055231
Ar 0.7270186361122976 -1.868663933331842 -0.06189402696059326
Ar -0.6676746842978186 -1.183771498089325 -1.384418273346004
Ar -1.063491967295329 1.315970868553057 1.255258683472693
Ar -1.837187819143813 1.919879868657252 0.7628286653104418
Ar 1.41290188602163 -0.7684250105713816 1.438395829377813
Ar -0.6862060688473075 0.505427042733322 -1.45654433766332
Ar -3.086455586186925 0.5350520005352044 1.076804337995041
Ar 0.1222134891022 -2.215439726009894 -0.9991449368924038
Ar -3.366549080891966 0.9973804226180467 0.0581296093021812
Ar 0.8514474600328586 -1.361438903089992 -1.010058290152564
Ar -2.526488523154749 -2.00912791202938 0.4110243971540457
Ar 0.2280765371420742 -0.2816363106012335 2.714922783902403
Ar 2.454364974689701 -0.9313206005891469 1.168323474588523
Ar -0.7723415076620319 -1.540697769751086 0.3775061338964955
Ar -0.7371097387709925 0.3171258821043643 -0.3645795853259278
Ar 1.636294109084586 0.8286252316664834 2.008660650726232
Ar -2.101085093676058 1.985974014908 -2.047482266883101
Ar -0.1421752429143718 -0.340199133408271 -0.935714436196874
Ar 0.356980028070952 0.4325879067143009 -1.798807978592371
Ar -0.4097274970368036 0.8203278721068642 -2.45522641138346
Ar -1.731396686322389 0.5576738818973439 -0.6008566890669537
Ar 0.5092333188800285 0.7552363310673981 0.8927742532480549
Ar 2.553650450044374 -0.9115154564025449 -0.08473715262133025
Ar -2.015554813346431 1.453521737840513 -1.091156377703018
Ar 0.6051966159717 -2.983948750429826 -0.2339244019979246
Ar 1.201656940171161 -1.604403826325408 2.119888234042742
Ar 1.020971848338025 0.4919468067513129 2.814764954773485
Ar -2.564935362405253 0.2555145541109329 0.1736401532652894
Ar 1.733887696824866 -1.629740386851767 -0.3886387637896935
Ar -0.5901317786048009 -2.381667086428054 1.053838371342001
Ar -0.1683419135111819 1.311781491447165 0.08044691821056153
Ar 1.588130891840008 -0.8945405154560161 0.4034871410449477
Ar -0.2668850170764792 1.549935799543531 -1.606046261284833
Ar 3.110349831222185 -0.02273674364302489 1.344676154485474
Ar 2.38124373325855 1.669269462549684 1.89662846297979
Ar 3.000063892697238 -0.3581388527402501 2.417338505011323
Ar 2.256480892755027 -1.79048217179615 0.5317518632279284
Ar -2.883938438398461 1.612491718755952 0.8294392917902867
Ar 0.9175131542410323 1.078594323340391 -0.1366414555823141
Ar -1.321092846212034 1.231943943327197 -1.898217577452336
Ar 1.218206292980513 -2.41342629209641 -0.9195250771904462
Ar 1.378128044414462 1.949697951544423 2.134604987289355
Ar 1.078474648998154 1.076740858139071 -1.265952099138738
Ar -2.784174140440882 0.6785900325088667 -0.8099316120298496
Ar -1.402214993663359 -2.425422373779456 0.268029960391595
Ar -3.148419475814878 0.2031596806771559 -1.728613177278132
Ar -1.28150692112757 -0.7431831402489167 0.8422199467418823
Ar -2.049874366168378 -0.4498076101188801 -0.4408041389745934
Ar 0.08878256974627481 0.8579296164357871 -0.8453884764806235
Ar -2.694324489225046 -1.339963152482743 -0.6010021706715143
Ar -2.041607744248042 0.8643325512763861 0.9391128950264538
Ar -0.1252744152322613 -1.330730076912415 -0.44197106897465
Ar -2.228161449839858 0.9628609650046331 -2.53846956111302
Ar -0.02150371075155031 0.7988202639009708 2.736233283122231
Ar -1.514093392795359 0.1166720596206549 0.33825828989643
Ar -1.354795314699915 -0.2592758685080567 -1.262482316764092
Ar -0.6103791252577694 -1.37053495731502 1.432475688650648
Ar -2.356732066663436 -0.1510781040379418 -2.458623295834765
Ar -0.5068616406834865 2.246196808841608 -0.5408648764294905
Ar -2.215176834038259 -0.2211552943401814 1.14269158213001
Ar 1.308218617939015 0.08906885700746189 0.09167368460478616
Ar -1.28328032620899 0.2479262124880592 1.431188381107538
Ar -3.017988810394473 1.753622484127495 -0.7248263209794401
Ar -0.7981986212106581 2.114562562996352 0.5027973779277287
Ar 2.139208052698806 -0.09065188586112566 1.80570650969908
Ar 1.85608661997224 0.4997984245546075 -0.7411117827381994
Ar 0.8350797450519337 0.07669478373037511 -0.8741920323191976
Ar -0.4788750243232316 -1.053711802151635 2.442599853957554
Ar -0.01848990316083357 1.653910036378974 1.13448022106063
Ar -1.298892112740233 3.036709301346278 -0.6992959452364921
128
algorithm=ssw size=128 seed=0 index=3 energy=-669.6595709250698 entry_id=3 visits=2
Ar -0.2938543248401695 -0.3825603720219627 1.35985650501552
Ar 0.635389327817277 -0.4224366558397025 0.7413506012660452
Ar -0.5006695955286012 0.6391935619860684 1.802818581768598
Ar -1.439571023157014 1.056306448447395 0.1910233445514102
Ar -0.8743516840912421 1.286028348000727 -0.6963509413625756
Ar -1.534059417193699 -1.854191417430425 1.024758067580612
Ar 1.845579431353402 0.853106345844998 3.19086661879753
Ar 2.115017207956712 1.048796405577707 1.440456720777468
Ar -0.9336927279570781 0.04139650433039008 -2.320932949716318
Ar 1.274217625507395 -0.3876822358916573 -1.757515487464795
Ar -2.210950023111712 2.413290076443986 -1.248912666172453
Ar 0.06808759935388826 -1.444782605577854 0.5961458817537663
Ar 0.6311751471250302 -0.08503537480073857 1.815463891536609
Ar 0.788425750300081 -0.6764265150599759 -0.2640524574731684
Ar 0.393806807934288 -2.141144887834821 1.461709578080085
Ar 1.667122956892522 -2.170008077415123 0.1207275493283497
Ar -2.006669703260865 -1.487161551531882 -0.8166220576471178
Ar -0.8744894501384329 0.3322694468067047 0.8034511414978476
Ar -1.896526807110068 -1.14630806919238 0.2019199067120289
Ar 0.1177816188362416 -0.1827818984898588 -1.821012121733969
Ar -1.140570884178132 -0.7669905903286933 -0.5171688435778854
Ar -2.768104696888411 -1.765167721110845 -0.0378244244745955
Ar 2.313848678887229 -1.050428288455636 1.99237512033267
Ar -2.621764223968542 2.352135480117843 -0.2116596879066618
Ar 0.5519570053645808 0.9655788031111406 1.889012785906554
Ar -3.76584943190343 -1.163179989994023 -0.09456798878746756
Ar -2.734431485845725 -0.3649416623265007 -1.634398559048709
Ar -1.00300392045418 -1.8523945320633 -0.8510986803521607
Ar -0.3412363498402753 -0.5022289784950642 0.2659815443429723
Ar -0.6831553276882325 -0.7140750535414031 2.296789871703424
Ar -0.8381903807211539 1.688887937378402 -2.456953513384256
Ar -0.2533105049649488 -2.334958868831332 -0.1967742776387215
Ar 0.587767059465815 -2.488215327172584 0.4697689604540266
Ar -1.89705890212798 0.313089322717143 -1.690310346012186
Ar 0.1701608942448034 2.145072875740403 0.3042479746319451
Ar 1.173388427307366 1.608351434995046 1.288200231596598
Ar -1.597065703177694 2.001075983773541 -0.4214987042593511
Ar 1.743995679295691 0.5834156877891971 -1.406100592845075
Ar 2.586473352003374 0.765835013849721 2.363603336862042
Ar -1.712711883332627 2.854713104351599 0.2406233238284208
Ar 1.369028492519883 -0.6539492055518944 2.365457200597904
Ar 1.789219698814131 1.217954019959976 0.4192320917015732
Ar -1.629276879389391 -1.108714613553725 1.817993761385515
Ar -1.170703937427178 2.083226856582198 -1.441200893098173
Ar -2.852097192341595 -0.6919918231368457 0.2415422410567033
Ar 2.19172898969247 0.2336288616373868 0.6573871196623268
Ar 1.249201565491782 0.472849650112842 1.143033943582218
Ar 0.4672465865156507 -1.096238846378757 1.59364893310933
Ar 0.2632735421616452 0.3694146233101967 -0.07470143590078604
Ar 2.190312683876408 -0.1453940491113912 2.818244928561553
Ar -2.645123692785133 1.029328643354446 -2.036335077627319
Ar 2.100600094053603 -1.60607256161396 1.053963651231306
Ar 1.757408658114189 -0.29277836171801 -0.7368143068319414
Ar -2.382441536386735 1.306421577333166 -0.2738170046806949
Ar 0.8053558052974343 1.131185730406002 2.927340528229224
Ar 1.429364696180716 -2.480064080665689 1.166714076593614
Ar 1.087017829002144 -1.499667504068582 0.7479346760927382
Ar -3.361176760721257 -0.160139251411583 -0.5595280745694431
Ar 0.7458007973621561 -1.751213702068426 -0.2849295759018879
Ar -0.560514582169294 -1.034152195744064 -1.468250928820112
Ar -1.125779875293611 1.316424708344319 1.197445698822301
Ar -2.006963707335844 1.850170992912805 0.6320579211701715
Ar 1.483430619341787 -0.6803468254149725 1.316337756843199
Ar -0.1446913725340749 0.6508107199912266 -1.146746388268638
Ar -3.09036440047212 0.1338737856650945 0.9753009130700997
Ar 0.0480363043900943 -2.034086636834324 -1.216038613753171
Ar -3.423559272751581 0.9482631062430726 -0.2783306373337585
Ar 0.5858538827021328 -1.065100251760094 -1.24207518142933
Ar -2.564956993508435 -1.473098150857815 1.017126972412326
Ar 0.3457950047826155 -0.728704538923425 2.66323660823512
Ar 2.651673318142734 -0.6775844878045455 0.9838181920386785
Ar -0.9122487499901756 -1.551047975192613 0.2174039514561775
Ar -0.7662384088973577 0.3143623617355893 -0.2689712553811642
Ar 1.437851725375026 0.4905576504643379 2.247555565755579
Ar -1.921318720394265 1.862309300860101 -2.210266075608017
Ar -0.0935448920568248 -0.3340754895568007 -0.7829338219363354
Ar 0.754570787641331 1.097996451294095 -1.555748169177868
Ar -0.1162142074249463 0.8216773110776484 -2.237213074654704
Ar -1.712893892728991 0.5134734287233791 -0.6693890555472516
Ar 0.1729805608810781 0.5098096442484367 0.9839426651704842
Ar 2.678082451729075 -0.3664806304990494 -0.1162508547825083
Ar -1.945983079316797 1.353539273835182 -1.255908445836957
Ar 0.6864183168088808 -2.78153567553113 -0.6047220123859784
Ar 1.348801842883622 -1.640487177033159 1.86789225033742
Ar 1.044344869777187 0.04275752244835831 3.144457379449071
Ar -2.570937002142639 0.3285848213593852 0.05055905611048681
Ar 1.670702054990385 -1.340883535041169 -0.6226254970762509
Ar -0.5159688591254912 -2.359611228542771 0.8590947812148277
Ar -0.3778571114869135 1.163918528010749 0.2962541196067768
Ar 1.728616588518843 -0.7363459381446894 0.2928647426039697
Ar -0.1863880160285513 1.679114788661641 -1.523783425865613
Ar 3.059111113070375 0.4430674555881519 1.305402812615843
Ar 1.629904085387057 1.544396134677777 2.303510695763958
Ar 3.105810506161349 -0.267873374679911 2.168511657562322
Ar 2.534359637329268 -1.442710153564698 0.07085911134312524
Ar -2.88967943211363 1.188630042098122 0.6813073069956602
Ar 0.7229882016489109 1.205804780667281 0.4055789699062376
Ar -1.045849393019862 0.9717364279445867 -1.69212444343412
Ar 1.148524126276112 -2.029686354185631 -1.284292415518796
Ar 0.5989328793833565 2.000655407781323 2.164115686910909
Ar 1.258178579958363 1.107757553902759 -0.5592082979761746
Ar -2.721253812384206 0.5681163977593084 -1.033446264097778
Ar -1.723889055697164 -2.218176171726802 -0.02810688193989562
Ar -1.985935988954393 -0.3018600722556709 -2.555320425732486
Ar -1.167112459371326 -0.7675447319063174 0.8966730524000507
Ar -2.222122837590746 -0.4295839315046027 -0.6586131375875853
Ar 0.2337593825862576 1.441582573443958 -0.5470294860858752
Ar -3.026920057972516 -1.137849115781401 -0.9052888021533506
Ar -1.989350020578516 0.6061584458523118 0.9893707961828707
Ar -0.1661419445475634 -1.295708522233635 -0.4631317764971302
Ar -1.651097077323821 0.8581068005969208 -2.596635373542951
Ar 0.07810374973247754 0.3248595018613551 2.665521547636866
Ar -1.627880038021591 -0.1053037396585742 0.2039380610649968
Ar -0.9739345890572689 -0.01700513319954671 -1.265162300423575