115
Lattice="13.75323 0.0 0.0 0.0 13.75323 0.0 0.0 0.0 23.89" Properties=species:S:1:pos:R:3 entry_id=30 rank=0 energy=-573.8716430664062 parent_id=15 pbc="T T F"
Pd       0.00000000       0.00000000      10.00000000
Pd       2.75064538       0.00000000      10.00000000
Pd       5.50129076       0.00000000      10.00000000
Pd       8.25193614       0.00000000      10.00000000
Pd      11.00258152       0.00000000      10.00000000
Pd       0.00000000       2.75064538      10.00000000
Pd       2.75064538       2.75064538      10.00000000
Pd       5.50129076       2.75064538      10.00000000
Pd       8.25193614       2.75064538      10.00000000
Pd      11.00258152       2.75064538      10.00000000
Pd       0.00000000       5.50129076      10.00000000
Pd       2.75064538       5.50129076      10.00000000
Pd       5.50129076       5.50129076      10.00000000
Pd       8.25193614       5.50129076      10.00000000
Pd      11.00258152       5.50129076      10.00000000
Pd       0.00000000       8.25193614      10.00000000
Pd       2.75064538       8.25193614      10.00000000
Pd       5.50129076       8.25193614      10.00000000
Pd       8.25193614       8.25193614      10.00000000
Pd      11.00258152       8.25193614      10.00000000
Pd       0.00000000      11.00258152      10.00000000
Pd       2.75064538      11.00258152      10.00000000
Pd       5.50129076      11.00258152      10.00000000
Pd       8.25193614      11.00258152      10.00000000
Pd      11.00258152      11.00258152      10.00000000
Pd       1.35339494       1.37391368      11.98215112
Pd       4.09521679       1.39452985      11.99734558
Pd       6.82993368       1.41230451      11.96744425
Pd       9.57512057       1.39592898      11.89594876
Pd      12.38684272       1.37174114      11.92044161
Pd       1.34975071       4.11934915      12.00318568
Pd       4.09304144       4.12871291      11.96357750
Pd       6.85685337       4.11833352      11.97133296
Pd       9.56728621       4.13975942      11.94281254
Pd      12.36578195       4.13265160      11.93417299
Pd       1.37110082       6.89256210      11.94010419
Pd       4.13935064       6.87026939      11.96482277
Pd       6.87097415       6.85831372      11.95140951
Pd       9.64205429       6.82915781      11.94515418
Pd      12.39111484       6.85622887      11.94896407
Pd       1.38771759       9.64387761      11.99757441
Pd       4.11777592       9.66324146      11.95099537
Pd       6.89476706       9.64088005      11.95142944
Pd       9.64982872       9.59779534      11.89439304
Pd      12.42487279       9.60955999      11.94161946
Pd       1.37055322      12.37419092      12.00134886
Pd       4.11125402      12.39413526      11.99680934
Pd       6.86816975      12.39901143      11.97280504
Pd       9.63028672      12.36702810      11.91406436
Pd      12.39883245      12.34822024      11.97725240
Pd      13.66343347      13.70428525      13.99892524
Pd       2.61250287       0.04907918      13.99387445
Pd       5.60961740       0.05817295      13.96463832
Pd       8.25845687      13.73976386      13.85636796
Pd      10.96050425      13.70930290      13.91824547
Pd      13.72131742       2.70174385      14.01012518
Pd       2.69241133       2.79231192      14.04142612
Pd       5.45310894       2.82306295      13.99353455
Pd       8.24990732       2.67701282      14.00768835
Pd      10.94621673       2.70263177      13.97807421
Pd      13.73114521       5.51255322      13.95739965
Pd       2.74733735       5.54418646      13.98979366
Pd       5.51193240       5.57345289      13.89628850
Pd       8.22511471       5.44815707      14.02858418
Pd      10.96982071       5.50983861      13.97476927
Pd       0.05778977       8.24969262      13.92657880
Pd       2.84183849       8.26514789      13.99863494
Pd       5.55514406       8.25446108      14.00423785
Pd       8.27861365       8.27287917      14.03304632
Pd      11.02415950       8.29342343      13.87620604
Pd      13.70926604      10.93514423      14.14617275
Pd       2.86398186      10.96661825      14.04748376
Pd       5.56998029      10.95162375      13.91037501
Pd       8.29510414      11.04435400      13.90166262
Pd      11.03217860      10.99934552      13.96089511
Pd       9.87272983       7.35835060      16.13853867
Pd       6.94758687       9.73488456      16.40972862
Pd       1.91062069      12.34994408      16.56697169
Pd       1.27361905       4.44495349      15.99097573
Pd      12.30912786       8.89734643      16.23576156
Pd       9.52354600       0.99906702      15.91303713
Pd       4.21499077       0.67499746      17.51835557
Pd       4.20874281       8.68047941      16.48367815
Pd       4.54775176      12.12008846      16.09080696
Pd       9.69510408      11.03303255      16.49128920
Pd       0.85728480       1.39420306      16.82045629
Pd       3.38227517       3.01183881      16.79089965
Pd      12.31323217       4.13448014      16.04714556
Pd       1.59335777       7.11907915      16.18003286
Pd       6.92529427       6.43084876      16.33095973
Pd       7.01545715      13.30823788      16.42235917
Pd       9.73714242       3.97579549      16.44390077
Pd       6.91380497       2.82424223      16.60744920
Pd      12.60796630      11.94016544      16.48073955
Pd       4.38897535       5.35602334      16.28123858
O        8.78145717       2.39929850      17.15762741
O        8.89054479       9.09316651      16.09379652
O       11.47503780      10.45032498      17.08214368
O       11.37217117      13.20209454      17.52026375
O       10.08627800      13.03410468      17.10075587
O        3.40979636       6.93494776      16.86324237
O        4.12713124       0.15025104      15.33336441
O        0.10897458      13.41728018      16.04047679
O        7.83388696      11.53362624      15.93559668
O        1.48875392      10.78082524      15.50174048
O        2.28896754       0.19734600      17.68492584
O        1.59051221       3.07859100      17.52681544
O        7.74560502       4.65499377      16.01804817
O        6.14042298       8.04654019      17.04470662
O        5.13943787       3.46616000      15.96510823
O       13.09966787       2.34880111      15.93656802
O       10.85386367       5.60791634      16.07826227
O       13.45283448       7.37588870      15.73606895
O        6.15010940       1.08822169      17.30275031
O        5.10447652      10.43025180      16.84403028
115
Lattice="13.75323 0.0 0.0 0.0 13.75323 0.0 0.0 0.0 23.89" Properties=species:S:1:pos:R:3 entry_id=34 rank=1 energy=-573.86865234375 parent_id=33 pbc="T T F"
Pd       0.00000000       0.00000000      10.00000000
Pd       2.75064538       0.00000000      10.00000000
Pd       5.50129076       0.00000000      10.00000000
Pd       8.25193614       0.00000000      10.00000000
Pd      11.00258152       0.00000000      10.00000000
Pd       0.00000000       2.75064538      10.00000000
Pd       2.75064538       2.75064538      10.00000000
Pd       5.50129076       2.75064538      10.00000000
Pd       8.25193614       2.75064538      10.00000000
Pd      11.00258152       2.75064538      10.00000000
Pd       0.00000000       5.50129076      10.00000000
Pd       2.75064538       5.50129076      10.00000000
Pd       5.50129076       5.50129076      10.00000000
Pd       8.25193614       5.50129076      10.00000000
Pd      11.00258152       5.50129076      10.00000000
Pd       0.00000000       8.25193614      10.00000000
Pd       2.75064538       8.25193614      10.00000000
Pd       5.50129076       8.25193614      10.00000000
Pd       8.25193614       8.25193614      10.00000000
Pd      11.00258152       8.25193614      10.00000000
Pd       0.00000000      11.00258152      10.00000000
Pd       2.75064538      11.00258152      10.00000000
Pd       5.50129076      11.00258152      10.00000000
Pd       8.25193614      11.00258152      10.00000000
Pd      11.00258152      11.00258152      10.00000000
Pd       1.35851090       1.36811177      11.98926709
Pd       4.09975984       1.38906647      11.99876580
Pd       6.83329578       1.40780578      11.96777204
Pd       9.57512057       1.39592898      11.89594876
Pd      12.38684272       1.37174114      11.92044161
Pd       1.34509562       4.11885154      12.01348520
Pd       4.09308713       4.12664827      11.96258240
Pd       6.85863720       4.11493206      11.97285220
Pd       9.56728621       4.13975942      11.94281254
Pd      12.36578195       4.13265160      11.93417299
Pd       1.37110082       6.89256210      11.94010419
Pd       4.13935064       6.87026939      11.96482277
Pd       6.87097415       6.85831372      11.95140951
Pd       9.64205429       6.82915781      11.94515418
Pd      12.39111484       6.85622887      11.94896407
Pd       1.39224668       9.64086699      11.99045395
Pd       4.11777592       9.66324146      11.95099537
Pd       6.89476706       9.64088005      11.95142944
Pd       9.64982872       9.59779534      11.89439304
Pd      12.42487279       9.60955999      11.94161946
Pd       1.37818961      12.37348212      12.00170145
Pd       4.11433871      12.39325179      12.00201763
Pd       6.86816975      12.39901143      11.97280504
Pd       9.63028672      12.36702810      11.91406436
Pd      12.40349634      12.34866129      11.97214047
Pd      13.66574393      13.69077068      14.00398850
Pd       2.62003431       0.03748262      14.00919589
Pd       5.61883236       0.05329055      13.97108778
Pd       8.25800436       2.66619919      14.01199231
Pd      10.96545784      13.70989739      13.90082689
Pd      13.72827794       2.68682034      14.00906169
Pd       2.70514843       2.77946950      14.04171229
Pd       5.46057497       2.81898870      13.99083510
Pd       8.22577362       5.43419528      14.03225222
Pd      10.94880589       2.69434451      13.97971763
Pd      13.72347760       5.50105872      13.98169020
Pd       2.75290747       5.53504725      13.99340366
Pd       5.51409315       5.57460473      13.89562433
Pd       8.28101417       8.25919099      14.03962394
Pd      10.96706416       5.49870969      13.97770753
Pd       0.06475116       8.25159298      13.91940173
Pd       2.84182295       8.26101125      14.00471087
Pd       5.55295243       8.25590976      13.99922299
Pd       8.30902611      11.03426219      13.90272130
Pd      11.02769321       8.29252291      13.87689921
Pd      13.73137228      10.92917515      14.11263216
Pd       2.88186741      10.95986989      14.04822163
Pd       5.58697121      10.94867374      13.91041915
Pd       8.26428981      13.73433405      13.86089632
Pd      11.04564878      11.00176167      13.95551709
Pd       9.89618648       7.29194292      16.13212475
Pd       6.99266873       9.68984814      16.41729979
Pd       1.93877653      12.29326125      16.55896506
Pd       1.29984671       4.38904520      15.98948162
Pd      12.34989678       8.76624900      16.23646731
Pd       9.56124355       0.94013433      15.93167273
Pd       4.25023494       0.63269829      17.50575702
Pd       4.25271348       8.64603188      16.49062952
Pd       4.58466425      12.07544911      16.10393118
Pd       9.75378252      10.95425694      16.48857050
Pd       0.88941952       1.33300876      16.81586253
Pd       3.41937530       2.97436063      16.79217183
Pd      12.33560114       4.07359719      16.05071590
Pd       1.63436046       7.05858423      16.17715493
Pd       6.96504927       6.38241160      16.35044792
Pd       7.06396106      13.25863038      16.41748033
Pd       9.76538386       3.91166148      16.45879736
Pd       6.94804827       2.77857426      16.61258902
Pd      12.65823113      11.85051205      16.47703139
Pd       4.42675890       5.32144921      16.28932461
O        8.80980497       2.33665684      17.17248617
O        8.92723458       9.03179553      16.08921214
O       11.53704597      10.34212652      17.06056441
O       11.42642155      13.10345186      17.52913367
O       10.14480553      12.94796444      17.09949398
O        3.45036856       6.90278959      16.86786106
O        4.14556993       0.10300063      15.34818440
O        0.13069390      13.35605619      16.03824584
O        7.89262234      11.48256024      15.94473799
O        1.49598868      10.73221440      15.48777627
O        2.32639460       0.14068769      17.67670274
O        1.62547182       3.01720778      17.52101341
O        7.78161757       4.60767746      16.02515330
O        6.18144698       8.00285546      17.05329799
O        5.17644411       3.43257727      15.97212543
O       13.13180851       2.29197861      15.93665966
O       10.87816284       5.54378589      16.08395858
O       13.49318931       7.24788118      15.68738969
O        6.18779084       1.03764052      17.29116004
O        5.15567959      10.39052506      16.85805382
115
Lattice="13.75323 0.0 0.0 0.0 13.75323 0.0 0.0 0.0 23.89" Properties=species:S:1:pos:R:3 entry_id=31 rank=2 energy=-573.482421875 parent_id=30 pbc="T T F"
Pd       0.00000000       0.00000000      10.00000000
Pd       2.75064538       0.00000000      10.00000000
Pd       5.50129076       0.00000000      10.00000000
Pd       8.25193614       0.00000000      10.00000000
Pd      11.00258152       0.00000000      10.00000000
Pd       0.00000000       2.75064538      10.00000000
Pd       2.75064538       2.75064538      10.00000000
Pd       5.50129076       2.75064538      10.00000000
Pd       8.25193614       2.75064538      10.00000000
Pd      11.00258152       2.75064538      10.00000000
Pd       0.00000000       5.50129076      10.00000000
Pd       2.75064538       5.50129076      10.00000000
Pd       5.50129076       5.50129076      10.00000000
Pd       8.25193614       5.50129076      10.00000000
Pd      11.00258152       5.50129076      10.00000000
Pd       0.00000000       8.25193614      10.00000000
Pd       2.75064538       8.25193614      10.00000000
Pd       5.50129076       8.25193614      10.00000000
Pd       8.25193614       8.25193614      10.00000000
Pd      11.00258152       8.25193614      10.00000000
Pd       0.00000000      11.00258152      10.00000000
Pd       2.75064538      11.00258152      10.00000000
Pd       5.50129076      11.00258152      10.00000000
Pd       8.25193614      11.00258152      10.00000000
Pd      11.00258152      11.00258152      10.00000000
Pd       1.35948878       1.36975426      11.99407714
Pd       4.11873923       1.37893315      12.03200208
Pd       6.84607214       1.40597947      11.93969518
Pd       9.57512057       1.39592898      11.89594876
Pd      12.38684272       1.37174114      11.92044161
Pd       1.34292134       4.12337726      12.02704777
Pd       4.10847345       4.11720464      11.99510748
Pd       6.85448305       4.11685576      11.92637162
Pd       9.56728621       4.13975942      11.94281254
Pd      12.36578195       4.13265160      11.93417299
Pd       1.37110082       6.89256210      11.94010419
Pd       4.13935064       6.87026939      11.96482277
Pd       6.87097415       6.85831372      11.95140951
Pd       9.64205429       6.82915781      11.94515418
Pd      12.39111484       6.85622887      11.94896407
Pd       1.39384763       9.64173455      12.00840712
Pd       4.11777592       9.66324146      11.95099537
Pd       6.89476706       9.64088005      11.95142944
Pd       9.64982872       9.59779534      11.89439304
Pd      12.42487279       9.60955999      11.94161946
Pd       1.35525424      12.37205406      12.00937940
Pd       4.13303214      12.39573989      12.02525704
Pd       6.86816975      12.39901143      11.97280504
Pd       9.63028672      12.36702810      11.91406436
Pd      12.35267909      12.34594518      12.00487837
Pd      13.57452223      13.70457554      13.99637089
Pd       2.60324446       0.03024919      14.00642973
Pd       5.77403843       0.01091727      14.00471594
Pd       8.19961274       1.29168846      14.22300800
Pd      10.77335451      13.69388147      13.98716008
Pd      13.68087357       2.69944074      13.99162626
Pd       2.71710814       2.77287766      14.03921172
Pd       5.57295544       2.78122012      14.02640747
Pd       8.17640302       4.03230201      14.24146748
Pd      10.75348789       2.66439347      14.03263364
Pd      13.64615525       5.51418300      13.98946630
Pd       2.75515250       5.52859967      13.98146439
Pd       5.62012987       5.53802345      13.92028870
Pd       8.21315525       6.72479973      14.20502360
Pd      10.78418369       5.46189126      14.03244560
Pd       0.06479937       8.26036897      13.91978841
Pd       2.89860474       8.25636797      14.00235381
Pd       5.69360674       8.23875780      14.01643951
Pd       8.40170528       9.39381363      14.19411594
Pd      10.96645353       8.24750015      13.88892608
Pd      13.64787248      10.93543158      14.09906766
Pd       2.91912401      10.95929601      14.02727009
Pd       5.71748600      10.93302991      13.95846757
Pd       8.30846540      12.18850787      14.27632833
Pd      10.89361649      10.97071674      13.99993525
Pd       9.87933957       7.33702296      16.24253856
Pd       6.94625036       9.71992081      16.54332533
Pd       1.88074906      12.29845289      16.50925778
Pd       1.25737455       4.35843822      15.95024390
Pd      12.32894900       8.73658758      16.24459863
Pd       9.53890107       0.65724241      16.30994242
Pd       4.10834888       0.56716478      17.65750528
Pd       4.24715211       8.60601872      16.45150221
Pd       4.55458823      12.08480142      16.09452897
Pd       9.74952053      10.97095282      16.72367909
Pd       0.79458493       1.31492928      16.79935707
Pd       3.34860229       2.88844055      16.79779246
Pd      12.25346738       4.07467222      16.02196004
Pd       1.62168332       7.02611058      16.12777622
Pd       6.91267791       6.25212475      16.49999150
Pd       6.96047356      13.27632231      16.73061456
Pd       9.72337639       3.83517361      16.64339457
Pd       6.87266618       2.64830709      16.78974129
Pd      12.62973355      11.80489564      16.50231559
Pd       4.38968256       5.22330522      16.26603238
O        8.77751396       2.22724834      17.32786280
O        8.92037331       9.11736896      16.24184980
O       11.55411913      10.28992456      17.14755335
O       11.55568125      13.00865407      17.76609819
O       10.22054132      12.84679117      17.51665538
O        3.44688869       6.84828483      16.79388989
O        4.19086004       0.07591617      15.24720538
O        0.04875650      13.33863771      16.01589014
O        7.86551576      11.56811965      16.25367272
O        1.47511239      10.75371955      15.39995058
O        2.18976163       0.10310550      17.69630607
O        1.54258811       2.99618642      17.49377833
O        7.70004226       4.43635100      16.24889439
O        6.15928572       7.95817366      17.03970607
O        5.13375340       3.31457623      16.02802733
O       13.05434831       2.29039735      15.89805625
O       10.75491669       5.50859585      16.15708408
O       13.46736894       7.21841587      15.66218856
O        6.03113346       1.00946600      17.58352053
O        5.07267317      10.38497183      16.88931814
115
Lattice="13.75323 0.0 0.0 0.0 13.75323 0.0 0.0 0.0 23.89" Properties=species:S:1:pos:R:3 entry_id=33 rank=3 energy=-573.479736328125 parent_id=31 pbc="T T F"
Pd       0.00000000       0.00000000      10.00000000
Pd       2.75064538       0.00000000      10.00000000
Pd       5.50129076       0.00000000      10.00000000
Pd       8.25193614       0.00000000      10.00000000
Pd      11.00258152       0.00000000      10.00000000
Pd       0.00000000       2.75064538      10.00000000
Pd       2.75064538       2.75064538      10.00000000
Pd       5.50129076       2.75064538      10.00000000
Pd       8.25193614       2.75064538      10.00000000
Pd      11.00258152       2.75064538      10.00000000
Pd       0.00000000       5.50129076      10.00000000
Pd       2.75064538       5.50129076      10.00000000
Pd       5.50129076       5.50129076      10.00000000
Pd       8.25193614       5.50129076      10.00000000
Pd      11.00258152       5.50129076      10.00000000
Pd       0.00000000       8.25193614      10.00000000
Pd       2.75064538       8.25193614      10.00000000
Pd       5.50129076       8.25193614      10.00000000
Pd       8.25193614       8.25193614      10.00000000
Pd      11.00258152       8.25193614      10.00000000
Pd       0.00000000      11.00258152      10.00000000
Pd       2.75064538      11.00258152      10.00000000
Pd       5.50129076      11.00258152      10.00000000
Pd       8.25193614      11.00258152      10.00000000
Pd      11.00258152      11.00258152      10.00000000
Pd       1.36053866       1.37162665      11.99053762
Pd       4.12115390       1.37465285      12.03059282
Pd       6.84489754       1.40034202      11.93495518
Pd       9.57512057       1.39592898      11.89594876
Pd      12.38684272       1.37174114      11.92044161
Pd       1.34013874       4.12685944      12.02548471
Pd       4.10892238       4.11740233      11.99498418
Pd       6.85048099       4.11546104      11.92637394
Pd       9.56728621       4.13975942      11.94281254
Pd      12.36578195       4.13265160      11.93417299
Pd       1.37110082       6.89256210      11.94010419
Pd       4.13935064       6.87026939      11.96482277
Pd       6.87097415       6.85831372      11.95140951
Pd       9.64205429       6.82915781      11.94515418
Pd      12.39111484       6.85622887      11.94896407
Pd       1.39387997       9.63982764      12.00410083
Pd       4.11777592       9.66324146      11.95099537
Pd       6.89476706       9.64088005      11.95142944
Pd       9.64982872       9.59779534      11.89439304
Pd      12.42487279       9.60955999      11.94161946
Pd       1.35816457      12.36984151      12.00473426
Pd       4.13757551      12.39546769      12.02622513
Pd       6.86816975      12.39901143      11.97280504
Pd       9.63028672      12.36702810      11.91406436
Pd      12.35271538      12.34567362      12.00214443
Pd      13.57214466      13.70260514      13.98921926
Pd       2.59786101       0.02722209      14.00238220
Pd       5.78701072       0.01646581      14.01735007
Pd       8.19332568       1.35911824      14.21751732
Pd      10.77294487      13.71467895      13.96965322
Pd      13.68410410       2.69720581      13.99176926
Pd       2.72171113       2.76887645      14.02830657
Pd       5.57556424       2.78370864      14.01807222
Pd       8.17223766       4.08472337      14.23379346
Pd      10.76377071       2.68352974      14.01479822
Pd      13.64631715       5.51243360      13.99450859
Pd       2.75468066       5.52567589      13.97515127
Pd       5.61820641       5.55110229      13.92628150
Pd       8.20770292       6.77186989      14.20826376
Pd      10.78175914       5.47462351      14.03386535
Pd       0.05858899       8.25973596      13.91883857
Pd       2.88805582       8.25367247      13.99908050
Pd       5.68444584       8.25022357      14.00859733
Pd       8.40335902       9.43345703      14.19389061
Pd      10.96030793       8.26076519      13.88908990
Pd      13.64482104      10.93289647      14.08883532
Pd       2.92195908      10.95699467      14.01728809
Pd       5.73206673      10.94124767      13.95658801
Pd       8.31541090      12.23806895      14.30217975
Pd      10.88576625      10.99000085      13.99773526
Pd       9.88068560       7.32624153      16.24054727
Pd       6.92683696       9.69379693      16.52962869
Pd       1.86953354      12.27332518      16.50625067
Pd       1.26755182       4.33571573      15.94343292
Pd      12.32626491       8.71989895      16.24525719
Pd       9.48712631       0.59333742      16.28031383
Pd       4.09810342       0.53216506      17.67832103
Pd       4.23135677       8.56395806      16.43879328
Pd       4.53694335      12.06447481      16.08412436
Pd       9.73262441      10.95257776      16.72783036
Pd       0.78801885       1.29064909      16.79889169
Pd       3.34373778       2.83956263      16.78679810
Pd      12.25382439       4.06566370      16.01923719
Pd       1.62504666       7.00084560      16.12675353
Pd       6.90190863       6.22035542      16.49075773
Pd       6.93225416      13.24032043      16.76754278
Pd       9.72129252       3.80955810      16.62636158
Pd       6.87122403       2.61228168      16.78822313
Pd      12.61975578      11.79040288      16.49091661
Pd       4.38363190       5.17349835      16.25920152
O        8.78172662       2.19055023      17.30195238
O        8.91096515       9.10373911      16.24001908
O       11.54449524      10.27515740      17.13621306
O       11.54269565      13.00195026      17.74535302
O       10.20489061      12.82581172      17.51770903
O        3.44862044       6.80040660      16.79039798
O        4.18688881       0.05640662      15.23829338
O        0.04113720      13.32200095      16.00599142
O        7.84253494      11.54603583      16.26601867
O        1.47470930      10.73394984      15.38421904
O        2.17703530       0.06983085      17.70226191
O        1.54223510       2.96890302      17.48890849
O        7.69367277       4.40761935      16.24632919
O        6.14548196       7.92850290      17.02193068
O        5.13135229       3.26977831      16.02383834
O       13.05488560       2.28049663      15.89638692
O       10.75244184       5.49286781      16.15787785
O       13.47405775       7.20819496      15.66001372
O        6.01974199       0.98543333      17.60950697
O        5.04603050      10.35129818      16.86226255
115
Lattice="13.75323 0.0 0.0 0.0 13.75323 0.0 0.0 0.0 23.89" Properties=species:S:1:pos:R:3 entry_id=32 rank=4 energy=-573.1121826171875 parent_id=24 pbc="T T F"
Pd       0.00000000       0.00000000      10.00000000
Pd       2.75064538       0.00000000      10.00000000
Pd       5.50129076       0.00000000      10.00000000
Pd       8.25193614       0.00000000      10.00000000
Pd      11.00258152       0.00000000      10.00000000
Pd       0.00000000       2.75064538      10.00000000
Pd       2.75064538       2.75064538      10.00000000
Pd       5.50129076       2.75064538      10.00000000
Pd       8.25193614       2.75064538      10.00000000
Pd      11.00258152       2.75064538      10.00000000
Pd       0.00000000       5.50129076      10.00000000
Pd       2.75064538       5.50129076      10.00000000
Pd       5.50129076       5.50129076      10.00000000
Pd       8.25193614       5.50129076      10.00000000
Pd      11.00258152       5.50129076      10.00000000
Pd       0.00000000       8.25193614      10.00000000
Pd       2.75064538       8.25193614      10.00000000
Pd       5.50129076       8.25193614      10.00000000
Pd       8.25193614       8.25193614      10.00000000
Pd      11.00258152       8.25193614      10.00000000
Pd       0.00000000      11.00258152      10.00000000
Pd       2.75064538      11.00258152      10.00000000
Pd       5.50129076      11.00258152      10.00000000
Pd       8.25193614      11.00258152      10.00000000
Pd      11.00258152      11.00258152      10.00000000
Pd       1.36398643       1.38603580      11.93234673
Pd       4.11359943       1.38063724      11.92934352
Pd       6.88502501       1.39664270      11.94061572
Pd       9.57512057       1.39592898      11.89594876
Pd      12.38684272       1.37174114      11.92044161
Pd       1.35028703       4.14461439      11.96983601
Pd       4.07851173       4.13608300      11.95693021
Pd       6.83323164       4.12118327      11.95022961
Pd       9.56728621       4.13975942      11.94281254
Pd      12.36578195       4.13265160      11.93417299
Pd       1.37110082       6.89256210      11.94010419
Pd       4.13935064       6.87026939      11.96482277
Pd       6.87097415       6.85831372      11.95140951
Pd       9.64205429       6.82915781      11.94515418
Pd      12.39111484       6.85622887      11.94896407
Pd       1.40302564       9.66145053      11.99142487
Pd       4.11777592       9.66324146      11.95099537
Pd       6.89476706       9.64088005      11.95142944
Pd       9.64982872       9.59779534      11.89439304
Pd      12.42487279       9.60955999      11.94161946
Pd       1.36935786      12.37171287      12.00445950
Pd       4.11186074      12.35913405      11.96598045
Pd       6.86816975      12.39901143      11.97280504
Pd       9.63028672      12.36702810      11.91406436
Pd      12.40040196      12.36306161      12.00675491
Pd      13.70886927       0.06736999      13.96104095
Pd       2.67126499       0.00443956      13.91409103
Pd       5.63329051       0.01307162      13.83328720
Pd       8.31881125      13.74917628      14.03500622
Pd      10.98567184       0.03876068      13.99476277
Pd      13.72429277       2.80195453      13.89278909
Pd       2.67887750       2.74637025      13.97525483
Pd       5.45023865       2.70241181      13.92104908
Pd       8.20145234       2.75076392      13.96751881
Pd      10.94200661       2.79413879      13.94762889
Pd      13.66590559       5.54063184      13.98655112
Pd       2.62876339       5.48195807      14.01513298
Pd       5.44337862       5.53874694      13.94698594
Pd       8.25767470       5.50417992      13.89337870
Pd      10.98220889       5.53679245      14.03300845
Pd       0.04631375       8.27878624      13.87953637
Pd       2.81086743       8.23468009      13.99981756
Pd       5.53005913       8.30232866      13.98797937
Pd       8.29261078       8.23401868      13.97750269
Pd      11.02053339       8.25892099      14.02983245
Pd       0.02860555      11.09105255      14.20787126
Pd       2.88431450      10.95630893      14.09788256
Pd       5.54735872      11.00954014      14.01485650
Pd       8.32904066      10.93541218      13.86891210
Pd      11.06931709      11.01183014      13.95628631
Pd      12.42192214       6.94368623      16.33850507
Pd       7.00455623      10.81048004      16.45590045
Pd       2.06869843      12.81767808      16.55227365
Pd       1.03318344       5.39726808      16.38778499
Pd      12.32726729       9.83249388      16.22767824