115
Lattice="13.75323 0.0 0.0 0.0 13.75323 0.0 0.0 0.0 23.89" Properties=species:S:1:pos:R:3 entry_id=7 rank=0 energy=-572.5740356445312 parent_id=5 pbc="T T F"
Pd       0.00000000       0.00000000      10.00000000
Pd       2.75064538       0.00000000      10.00000000
Pd       5.50129076       0.00000000      10.00000000
Pd       8.25193614       0.00000000      10.00000000
Pd      11.00258152       0.00000000      10.00000000
Pd       0.00000000       2.75064538      10.00000000
Pd       2.75064538       2.75064538      10.00000000
Pd       5.50129076       2.75064538      10.00000000
Pd       8.25193614       2.75064538      10.00000000
Pd      11.00258152       2.75064538      10.00000000
Pd       0.00000000       5.50129076      10.00000000
Pd       2.75064538       5.50129076      10.00000000
Pd       5.50129076       5.50129076      10.00000000
Pd       8.25193614       5.50129076      10.00000000
Pd      11.00258152       5.50129076      10.00000000
Pd       0.00000000       8.25193614      10.00000000
Pd       2.75064538       8.25193614      10.00000000
Pd       5.50129076       8.25193614      10.00000000
Pd       8.25193614       8.25193614      10.00000000
Pd      11.00258152       8.25193614      10.00000000
Pd       0.00000000      11.00258152      10.00000000
Pd       2.75064538      11.00258152      10.00000000
Pd       5.50129076      11.00258152      10.00000000
Pd       8.25193614      11.00258152      10.00000000
Pd      11.00258152      11.00258152      10.00000000
Pd       1.38840852       1.39213291      11.96428904
Pd       4.11555481       1.39755181      11.97319849
Pd       6.84175828       1.39236475      11.99175838
Pd       9.57512057       1.39592898      11.89594876
Pd      12.38684272       1.37174114      11.92044161
Pd       1.38949936       4.11826000      11.97078059
Pd       4.10616127       4.11989748      12.00015321
Pd       6.84126298       4.12432598      11.99997963
Pd       9.56728621       4.13975942      11.94281254
Pd      12.36578195       4.13265160      11.93417299
Pd       1.37110082       6.89256210      11.94010419
Pd       4.13935064       6.87026939      11.96482277
Pd       6.87097415       6.85831372      11.95140951
Pd       9.64205429       6.82915781      11.94515418
Pd      12.39111484       6.85622887      11.94896407
Pd       1.36279046       9.65696437      11.96198918
Pd       4.11777592       9.66324146      11.95099537
Pd       6.89476706       9.64088005      11.95142944
Pd       9.64982872       9.59779534      11.89439304
Pd      12.42487279       9.60955999      11.94161946
Pd       1.34378737      12.39389342      11.97059476
Pd       4.08765961      12.40957259      11.97629915
Pd       6.86816975      12.39901143      11.97280504
Pd       9.63028672      12.36702810      11.91406436
Pd      12.37292657      12.33344557      11.99714017
Pd      13.67023980       0.01523812      13.93593541
Pd       2.75057837       0.03155322      13.95812356
Pd       5.49782165      13.71651031      13.98764567
Pd       8.20819732       0.05040225      13.97987329
Pd      10.91040113       0.07492787      13.87788431
Pd      13.74048359       2.72241779      13.85665170
Pd       2.65044356       2.80186884      14.18205585
Pd       5.41944550       2.66957014      13.99540721
Pd       8.27414739       2.72391794      13.99698676
Pd      10.96745901       2.77753403      14.07509097
Pd       0.01075017       5.50691551      13.94826771
Pd       2.74250667       5.51179711      13.94621060
Pd       5.50374756       5.60339209      14.05027566
Pd       8.24735411       5.47320459      14.02551648
Pd      11.00308038       5.47455357      13.96544725
Pd       0.07667970       8.23097397      14.01619060
Pd       2.85958328       8.20856711      13.89414115
Pd       5.63369326       8.31217623      13.97021351
Pd       8.36455342       8.26947298      13.97288999
Pd      11.10850206       8.25253993      13.88750994
Pd      13.72910798      11.01810631      14.20892243
Pd       2.74270407      11.06159328      13.93977639
Pd       5.46223993      11.00181975      13.90792334
Pd       8.17660240      11.06333841      14.06372779
Pd      10.94803648      10.96362053      13.94801354
Pd      12.64042744       6.40609625      16.40423101
Pd       9.20107713       9.72883112      16.34359319
Pd       1.33387425      13.24498526      16.16389955
Pd       1.62396914       6.87047374      16.00622059
Pd      12.41236122       9.12088986      16.29565559
Pd       9.33773504       1.11268300      16.46408410
Pd       4.30059026       1.22682606      16.25402295
Pd       6.01132887      10.16573330      16.44919442
Pd       4.19257752      12.20734339      15.97706817
Pd      12.04744635      12.57519760      16.06769638
Pd       0.37568676       4.02380905      16.25500897
Pd       3.53961035       4.49804083      16.30697677
Pd       9.71562403       4.05203050      16.78747040
Pd       3.10056633       9.50745153      16.23620106
Pd       7.44067558       6.97314148      16.31714608
Pd       6.86866009      13.38520977      16.35540482
Pd      10.08657963       7.35059312      16.14976321
Pd       6.87435966       3.21590942      16.45616768
Pd      13.04096272       1.25571257      16.80580633
Pd       4.54265118       7.09650496      16.10360679
O        8.49310270       2.63165564      17.39294719
O       11.00285183      10.51686304      15.99823717
O        0.05362131      11.73906970      16.20938923
O       11.13894409       3.13280012      17.85217748
O       11.14125969       1.79097714      17.64240339
O        4.68539485       8.86372815      17.14468003
O        2.42104640       1.15290332      15.76617503
O       13.62014952       0.22210734      18.41057227
O       10.26989181      13.32643533      15.74100902
O        1.53225986       9.73697606      15.03009307
O        1.07512274      13.46267513      18.23590569
O        1.83329304       5.08022348      17.03915775
O        7.93334264       4.99343636      16.06021416
O        7.53922770       8.84615122      16.92999618
O        5.30715473       4.07060013      15.52536132
O       12.67537346       2.79650897      15.56403383
O       10.92417546       5.45066696      16.05161131
O        0.05847106       7.85276479      16.95574906
O        6.11126065       1.37877838      16.92144266
O        7.45822955      11.51669118      16.00540338
115
Lattice="13.75323 0.0 0.0 0.0 13.75323 0.0 0.0 0.0 23.89" Properties=species:S:1:pos:R:3 entry_id=3 rank=1 energy=-572.5729370117188 parent_id=2 pbc="T T F"
Pd       0.00000000       0.00000000      10.00000000
Pd       2.75064538       0.00000000      10.00000000
Pd       5.50129076       0.00000000      10.00000000
Pd       8.25193614       0.00000000      10.00000000
Pd      11.00258152       0.00000000      10.00000000
Pd       0.00000000       2.75064538      10.00000000
Pd       2.75064538       2.75064538      10.00000000
Pd       5.50129076       2.75064538      10.00000000
Pd       8.25193614       2.75064538      10.00000000
Pd      11.00258152       2.75064538      10.00000000
Pd       0.00000000       5.50129076      10.00000000
Pd       2.75064538       5.50129076      10.00000000
Pd       5.50129076       5.50129076      10.00000000
Pd       8.25193614       5.50129076      10.00000000
Pd      11.00258152       5.50129076      10.00000000
Pd       0.00000000       8.25193614      10.00000000
Pd       2.75064538       8.25193614      10.00000000
Pd       5.50129076       8.25193614      10.00000000
Pd       8.25193614       8.25193614      10.00000000
Pd      11.00258152       8.25193614      10.00000000
Pd       0.00000000      11.00258152      10.00000000
Pd       2.75064538      11.00258152      10.00000000
Pd       5.50129076      11.00258152      10.00000000
Pd       8.25193614      11.00258152      10.00000000
Pd      11.00258152      11.00258152      10.00000000
Pd       1.38915087       1.38985123      11.96179413
Pd       4.11871776       1.39977546      11.97007349
Pd       6.84350530       1.39303852      11.98980448
Pd       9.57512057       1.39592898      11.89594876
Pd      12.38684272       1.37174114      11.92044161
Pd       1.39100698       4.11694877      11.96780272
Pd       4.10808086       4.12103485      11.99891904
Pd       6.84268063       4.12554889      11.99949350
Pd       9.56728621       4.13975942      11.94281254
Pd      12.36578195       4.13265160      11.93417299
Pd       1.37110082       6.89256210      11.94010419
Pd       4.13935064       6.87026939      11.96482277
Pd       6.87097415       6.85831372      11.95140951
Pd       9.64205429       6.82915781      11.94515418
Pd      12.39111484       6.85622887      11.94896407
Pd       1.36239144       9.65755190      11.96501952
Pd       4.11777592       9.66324146      11.95099537
Pd       6.89476706       9.64088005      11.95142944
Pd       9.64982872       9.59779534      11.89439304
Pd      12.42487279       9.60955999      11.94161946
Pd       1.34561353      12.39195310      11.97120891
Pd       4.09034408      12.41055381      11.97462098
Pd       6.86816975      12.39901143      11.97280504
Pd       9.63028672      12.36702810      11.91406436
Pd      12.37449588      12.33326304      11.99565208
Pd      13.67610491       0.00606597      13.93616210
Pd       2.75824343       0.03718897      13.95241735
Pd       5.50444221      13.71803808      13.98624056
Pd       8.21438485       0.05156056      13.97871343
Pd      10.91526229       0.07404061      13.87852269
Pd      13.74470805       2.71637751      13.85374311
Pd       2.65464504       2.80490498      14.17835194
Pd       5.42486521       2.67102533      13.99381569
Pd       8.27764673       2.72386861      13.99699652
Pd      10.97175527       2.77634457      14.07736447
Pd       0.01770344       5.49764690      13.94580276
Pd       2.74933489       5.51277267      13.94397379
Pd       5.50979963       5.60465190      14.05107564
Pd       8.25151652       5.47400836      14.02560239
Pd      11.00646732       5.47470522      13.96422889
Pd       0.06770755       8.21682986      14.00872201
Pd       2.85133786       8.21363893      13.89864388
Pd       5.63007176       8.31254494      13.96853782
Pd       8.36217287       8.26876042      13.97451203
Pd      11.10370717       8.25483240      13.88682471
Pd      13.73935113      10.99963540      14.21664402
Pd       2.75169797      11.07252877      13.94240717
Pd       5.47013150      11.00191706      13.90877579
Pd       8.18557216      11.06406479      14.06050425
Pd      10.95836386      10.96709797      13.94723373
Pd      12.65544724       6.41014832      16.39388302
Pd       9.22060117       9.73351935      16.34179313
Pd       1.34948236      13.23769483      16.16161907
Pd       1.63867861       6.86396493      16.00554862
Pd      12.42930380       9.12698773      16.28668002
Pd       9.35705069       1.11525382      16.46666154
Pd       4.31395905       1.22974066      16.25437452
Pd       6.03574984      10.16834166      16.45124849
Pd       4.21369012      12.21277226      15.98087393
Pd      12.07022954      12.57828563      16.07074747
Pd       0.38843256       4.02254889      16.25304013
Pd       3.55252117       4.49762403      16.30548998
Pd       9.72918345       4.05479960      16.78766177
Pd       3.14019048       9.51485364      16.23936836
Pd       7.45873071       6.97422168      16.32360110
Pd       6.88481462      13.39036571      16.35515780
Pd      10.10200859       7.35411739      16.15679428
Pd       6.88840654       3.21711889      16.45603892
Pd      13.06286131       1.26410477      16.80854714
Pd       4.55944369       7.09635171      16.10978901
O        8.50834505       2.63277158      17.39340437
O       11.01971933      10.52449108      15.99742518
O        0.07089667      11.73130290      16.21385097
O       11.15497019       3.14025157      17.85298943
O       11.16110193       1.79815026      17.64511061
O        4.71745037       8.86188633      17.15316554
O        2.43585533       1.14586159      15.76140440
O       13.64975730       0.23728154      18.41345846
O       10.29431416      13.33096193      15.74666803
O        1.57274618       9.73443037      15.03387497
O        1.10012161      13.46672577      18.23418231
O        1.84644189       5.07608921      17.04094512
O        7.94609647       4.99458464      16.06096492
O        7.56255096       8.84833758      16.93292481
O        5.32035105       4.07061368      15.52462729
O       12.68408562       2.79828336      15.56185536
O       10.93547101       5.45401026      16.04909378
O        0.07401511       7.85706008      16.94263982
O        6.12427632       1.38234292      16.92214562
O        7.47802007      11.52256740      16.00486831
115
Lattice="13.75323 0.0 0.0 0.0 13.75323 0.0 0.0 0.0 23.89" Properties=species:S:1:pos:R:3 entry_id=6 rank=2 energy=-572.570068359375 parent_id=3 pbc="T T F"
Pd       0.00000000       0.00000000      10.00000000
Pd       2.75064538       0.00000000      10.00000000
Pd       5.50129076       0.00000000      10.00000000
Pd       8.25193614       0.00000000      10.00000000
Pd      11.00258152       0.00000000      10.00000000
Pd       0.00000000       2.75064538      10.00000000
Pd       2.75064538       2.75064538      10.00000000
Pd       5.50129076       2.75064538      10.00000000
Pd       8.25193614       2.75064538      10.00000000
Pd      11.00258152       2.75064538      10.00000000
Pd       0.00000000       5.50129076      10.00000000
Pd       2.75064538       5.50129076      10.00000000
Pd       5.50129076       5.50129076      10.00000000
Pd       8.25193614       5.50129076      10.00000000
Pd      11.00258152       5.50129076      10.00000000
Pd       0.00000000       8.25193614      10.00000000
Pd       2.75064538       8.25193614      10.00000000
Pd       5.50129076       8.25193614      10.00000000
Pd       8.25193614       8.25193614      10.00000000
Pd      11.00258152       8.25193614      10.00000000
Pd       0.00000000      11.00258152      10.00000000
Pd       2.75064538      11.00258152      10.00000000
Pd       5.50129076      11.00258152      10.00000000
Pd       8.25193614      11.00258152      10.00000000
Pd      11.00258152      11.00258152      10.00000000
Pd       1.38712636       1.38671760      11.96305773
Pd       4.11453244       1.40022321      11.97194397
Pd       6.84260220       1.39154627      11.98975837
Pd       9.57512057       1.39592898      11.89594876
Pd      12.38684272       1.37174114      11.92044161
Pd       1.39028284       4.11209593      11.97035747
Pd       4.10887502       4.12202931      11.99526244
Pd       6.84527635       4.12369840      12.00012784
Pd       9.56728621       4.13975942      11.94281254
Pd      12.36578195       4.13265160      11.93417299
Pd       1.37110082       6.89256210      11.94010419
Pd       4.13935064       6.87026939      11.96482277
Pd       6.87097415       6.85831372      11.95140951
Pd       9.64205429       6.82915781      11.94515418
Pd      12.39111484       6.85622887      11.94896407
Pd       1.36481549       9.65684311      11.96658844
Pd       4.11777592       9.66324146      11.95099537
Pd       6.89476706       9.64088005      11.95142944
Pd       9.64982872       9.59779534      11.89439304
Pd      12.42487279       9.60955999      11.94161946
Pd       1.34872912      12.39119612      11.97125067
Pd       4.09174755      12.41278996      11.97564153
Pd       6.86816975      12.39901143      11.97280504
Pd       9.63028672      12.36702810      11.91406436
Pd      12.37772293      12.33189901      11.99191679
Pd      13.67716683      13.74926517      13.93459404
Pd       2.75660682       0.04334945      13.96194968
Pd       5.50186979      13.72104136      13.98800541
Pd       8.21344010       0.04560144      13.97496410
Pd      10.91622165       0.07037685      13.87814683
Pd      13.73799820       2.70733900      13.85640220
Pd       2.64613631       2.80453265      14.18201668
Pd       5.41901446       2.67094740      13.98831568
Pd       8.27936246       2.71810302      13.99947957
Pd      10.97411039       2.77018383      14.07514175
Pd       0.02204018       5.48736493      13.94910876
Pd       2.75466807       5.51130982      13.93908800
Pd       5.51574829       5.60240591      14.04891168
Pd       8.25848408       5.46892330      14.02836728
Pd      11.01334535       5.47002151      13.96314833
Pd       0.05479204       8.20367467      14.00345717
Pd       2.83804667       8.21316134      13.90178355
Pd       5.61939394       8.31162819      13.96448737
Pd       8.35233628       8.26452303      13.97261133
Pd      11.09340080       8.25356305      13.88435181
Pd      13.75263584      10.98236898      14.21522471
Pd       2.76088887      11.08319346      13.94238635
Pd       5.47830652      11.00372921      13.90959908
Pd       8.19497843      11.05818597      14.06224534
Pd      10.96912519      10.96476200      13.94183351
Pd      12.65714333       6.37636194      16.40935933
Pd       9.24523181       9.71116723      16.33090727
Pd       1.34534102      13.23753816      16.16487321
Pd       1.64148893       6.85263814      15.99813518
Pd      12.44187811       9.09769958      16.28544670
Pd       9.35077066       1.09584502      16.46505262
Pd       4.29825971       1.23300058      16.25647881
Pd       6.05837927      10.16327606      16.45023638
Pd       4.22546736      12.21596302      15.98404371
Pd      12.07296799      12.56313032      16.06312706
Pd       0.38965981       4.00065379      16.25442146
Pd       3.55428670       4.48828942      16.29930159
Pd       9.72883331       4.02733107      16.78699939
Pd       3.18759989       9.51315169      16.23532836
Pd       7.46736756       6.96108718      16.32267955
Pd       6.88447521      13.38471724      16.35324577
Pd      10.11051117       7.32059523      16.14857062
Pd       6.88393817       3.20523827      16.45197505
Pd      13.05356357       1.24141629      16.81968095
Pd       4.57791971       7.08543318      16.11679545
O        8.49864510       2.61216388      17.39161665
O       11.04245259      10.50396834      15.98920624
O        0.07715375      11.72186224      16.20539730
O       11.14575502       3.11001663      17.86382885
O       11.15090185       1.76798136      17.65489064
O        4.75171439       8.84903190      17.16147827
O        2.41698355       1.15724619      15.77713931
O       13.63724883       0.20563452      18.41981706
O       10.29495419      13.31661521      15.74310627
O        1.61718128       9.73046185      15.03644955
O        1.09028039      13.44331097      18.23917435
O        1.84642462       5.06384166      17.03010329
O        7.94906537       4.97848784      16.06147568
O        7.58285881       8.83755972      16.92364208
O        5.32254699       4.06675759      15.51974831
O       12.68543224       2.77544451      15.57181623
O       10.94547456       5.41836958      16.04973937
O        0.07863976       7.82439799      16.95086369
O        6.11291621       1.37368334      16.91570423
O        7.49020089      11.52378908      16.00236459
115
Lattice="13.75323 0.0 0.0 0.0 13.75323 0.0 0.0 0.0 23.89" Properties=species:S:1:pos:R:3 entry_id=5 rank=3 energy=-572.5492553710938 parent_id=4 pbc="T T F"
Pd       0.00000000       0.00000000      10.00000000
Pd       2.75064538       0.00000000      10.00000000
Pd       5.50129076       0.00000000      10.00000000
Pd       8.25193614       0.00000000      10.00000000
Pd      11.00258152       0.00000000      10.00000000
Pd       0.00000000       2.75064538      10.00000000
Pd       2.75064538       2.75064538      10.00000000
Pd       5.50129076       2.75064538      10.00000000
Pd       8.25193614       2.75064538      10.00000000
Pd      11.00258152       2.75064538      10.00000000
Pd       0.00000000       5.50129076      10.00000000
Pd       2.75064538       5.50129076      10.00000000
Pd       5.50129076       5.50129076      10.00000000
Pd       8.25193614       5.50129076      10.00000000
Pd      11.00258152       5.50129076      10.00000000
Pd       0.00000000       8.25193614      10.00000000
Pd       2.75064538       8.25193614      10.00000000
Pd       5.50129076       8.25193614      10.00000000
Pd       8.25193614       8.25193614      10.00000000
Pd      11.00258152       8.25193614      10.00000000
Pd       0.00000000      11.00258152      10.00000000
Pd       2.75064538      11.00258152      10.00000000
Pd       5.50129076      11.00258152      10.00000000
Pd       8.25193614      11.00258152      10.00000000
Pd      11.00258152      11.00258152      10.00000000
Pd       1.38417290       1.40134092      11.97746035
Pd       4.11362940       1.40306030      11.97105704
Pd       6.83947001       1.39190403      11.98849547
Pd       9.57512057       1.39592898      11.89594876
Pd      12.38684272       1.37174114      11.92044161
Pd       1.38541390       4.11210606      11.98415917
Pd       4.10121088       4.12175921      12.00208380
Pd       6.83767266       4.12494738      12.00201166
Pd       9.56728621       4.13975942      11.94281254
Pd      12.36578195       4.13265160      11.93417299
Pd       1.37110082       6.89256210      11.94010419
Pd       4.13935064       6.87026939      11.96482277
Pd       6.87097415       6.85831372      11.95140951
Pd       9.64205429       6.82915781      11.94515418
Pd      12.39111484       6.85622887      11.94896407
Pd       1.36339105       9.66188136      11.96219880
Pd       4.11777592       9.66324146      11.95099537
Pd       6.89476706       9.64088005      11.95142944
Pd       9.64982872       9.59779534      11.89439304
Pd      12.42487279       9.60955999      11.94161946
Pd       1.35371768      12.40148433      11.96693970
Pd       4.09620891      12.41442841      11.97552845
Pd       6.86816975      12.39901143      11.97280504
Pd       9.63028672      12.36702810      11.91406436
Pd      12.37997249      12.33606431      11.99026368
Pd      13.69123404       0.00080007      13.93857086
Pd       2.77289410       0.05953903      13.95576780
Pd       5.51572753      13.71437486      13.99076114
Pd       8.22458707       0.04819144      13.97147290
Pd      10.92832732       0.07431967      13.87670414
Pd      13.67581628       2.71385126      13.89351366
Pd       2.60688963       2.82153809      14.24089244
Pd       5.39205779       2.66400223      13.99555167
Pd       8.24998216       2.71909514      13.99875278
Pd      10.93535452       2.76817063      13.99445300
Pd       0.02926998       5.48166363      13.96418464
Pd       2.75727301       5.51448385      13.95368669
Pd       5.52094927       5.60704176      14.05174849
Pd       8.26421000       5.47020537      14.02722442
Pd      11.02422593       5.46786051      13.96189898
Pd       0.06110984       8.19823716      14.00111820
Pd       2.85124106       8.22326384      13.88469763
Pd       5.63277536       8.31410060      13.96072751
Pd       8.36383687       8.26358487      13.97820611
Pd      11.10157664       8.25739768      13.88327570
Pd       0.00167830      10.97815518      14.18373689
Pd       2.75790688      11.09844005      13.94361956
Pd       5.47652250      10.99819439      13.91245259
Pd       8.19383508      11.05927092      14.06164109
Pd      10.96809837      10.97038645      13.93949169
Pd      12.71089351       6.39051886      16.40667061
Pd       9.26659119       9.70919034      16.33248487
Pd       1.38661623      13.19872035      16.16040384
Pd       1.69071907       6.92369706      16.00660138
Pd      12.46289779       9.11340482      16.28859198
Pd       9.39381881       1.10149349      16.45818103
Pd       4.33538915       1.22398309      16.26538816
Pd       6.09458611      10.18361371      16.45577918
Pd       4.24593600      12.21287945      15.98928393
Pd      12.10864534      12.56148995      16.05458049
Pd       0.59439578       4.06199320      16.30979141
Pd       3.63447756       4.54467345      16.32734804
Pd       9.78432048       4.02897648      16.77305938
Pd       3.20903712       9.52322892      16.22272249
Pd       7.50531272       6.96289532      16.33637047
Pd       6.91876348      13.39724278      16.35604593
Pd      10.15148102       7.32275004      16.15480409
Pd       6.93098417       3.21418257      16.46106217
Pd      13.16018892       1.18357232      16.92473112
Pd       4.63123814       7.11047690      16.12819479
O        8.55189969       2.62144592      17.38861998
O       11.05757174      10.50909298      15.98290447
O        0.09985445      11.69367557      16.17563908
O       11.21268133       3.10869805      17.82508319
O       11.21261331       1.76623711      17.62824769
O        4.77841726       8.88005219      17.16068851
O        2.45256770       1.13182491      15.78960251
O       13.66579910       0.01187029      18.45508123
O       10.33401454      13.32060063      15.74495616
O        1.63367637       9.71443599      15.02162692
O        1.13150592      13.27848940      18.25072232
O        1.97945858       5.19883687      17.10547024
O        7.99288823       4.98497427      16.06601168
O        7.60881901       8.83944432      16.93511182
O        5.36966699       4.06055555      15.51787013
O       12.96620881       2.76983229      15.74226855
O       11.00179181       5.42222635      16.04272152
O        0.10611152       7.85531187      16.96035211
O        6.15067731       1.38578751      16.92151646
O        7.53007503      11.53676318      16.00919103
115
Lattice="13.75323 0.0 0.0 0.0 13.75323 0.0 0.0 0.0 23.89" Properties=species:S:1:pos:R:3 entry_id=4 rank=4 energy=-572.5465087890625 parent_id=3 pbc="T T F"
Pd       0.00000000       0.00000000      10.00000000
Pd       2.75064538       0.00000000      10.00000000
Pd       5.50129076       0.00000000      10.00000000
Pd       8.25193614       0.00000000      10.00000000
Pd      11.00258152       0.00000000      10.00000000
Pd       0.00000000       2.75064538      10.00000000
Pd       2.75064538       2.75064538      10.00000000
Pd       5.50129076       2.75064538      10.00000000
Pd       8.25193614       2.75064538      10.00000000
Pd      11.00258152       2.75064538      10.00000000
Pd       0.00000000       5.50129076      10.00000000
Pd       2.75064538       5.50129076      10.00000000
Pd       5.50129076       5.50129076      10.00000000
Pd       8.25193614       5.50129076      10.00000000
Pd      11.00258152       5.50129076      10.00000000
Pd       0.00000000       8.25193614      10.00000000
Pd       2.75064538       8.25193614      10.00000000
Pd       5.50129076       8.25193614      10.00000000
Pd       8.25193614       8.25193614      10.00000000
Pd      11.00258152       8.25193614      10.00000000
Pd       0.00000000      11.00258152      10.00000000
Pd       2.75064538      11.00258152      10.00000000
Pd       5.50129076      11.00258152      10.00000000
Pd       8.25193614      11.00258152      10.00000000
Pd      11.00258152      11.00258152      10.00000000
Pd       1.37824203       1.40411317      11.98511687
Pd       4.10536371       1.40469177      11.97061446
Pd       6.83481573       1.39047316      11.98364945
Pd       9.57512057       1.39592898      11.89594876
Pd      12.38684272       1.37174114      11.92044161
Pd       1.38297954       4.11203723      11.99025494
Pd       4.09628679       4.12342400      12.00328400
Pd       6.83277609       4.12585400      11.99892547
Pd       9.56728621       4.13975942      11.94281254
Pd      12.36578195       4.13265160      11.93417299
Pd       1.37110082       6.89256210      11.94010419
Pd       4.13935064       6.87026939      11.96482277
Pd       6.87097415       6.85831372      11.95140951
Pd       9.64205429       6.82915781      11.94515418
Pd      12.39111484       6.85622887      11.94896407
Pd       1.36265426       9.66202068      11.96245179
Pd       4.11777592       9.66324146      11.95099537
Pd       6.89476706       9.64088005      11.95142944
Pd       9.64982872       9.59779534      11.89439304
Pd      12.42487279       9.60955999      11.94161946
Pd       1.35437260      12.40434178      11.96974548
Pd       4.09685551      12.41662281      11.97550922
Pd       6.86816975      12.39901143      11.97280504
Pd       9.63028672      12.36702810      11.91406436
Pd      12.38139822      12.33851356      11.99223931
Pd      13.69008780       0.00359674      13.94603514
Pd       2.77321488       0.06497175      13.96116913
Pd       5.51554127      13.71879123      13.98680362
Pd       8.22650473       0.04725394      13.96546969
Pd      10.92888173       0.07095407      13.88228275
Pd      13.65185965       2.71563558      13.90713046
Pd       2.58702315       2.82943024      14.26570776
Pd       5.37591982       2.66550992      13.99043031
Pd       8.23269344       2.71795390      13.98833831
Pd      10.91622941       2.76453349      13.98197554
Pd       0.03205335       5.47684060      13.97483940
Pd       2.75806555       5.51688188      13.95837662
Pd       5.52447913       5.61444021      14.05191935
Pd       8.26906249       5.46947402      14.02431543
Pd      11.02930038       5.46576266      13.96675529
Pd       0.05689756       8.18841166      14.00417468
Pd       2.84492003       8.22665494      13.88684060
Pd       5.62909485       8.31909195      13.95775345
Pd       8.36227716       8.26244065      13.97657237
Pd      11.10015427       8.25665501      13.88440310
Pd       0.01023542      10.97150174      14.17891917
Pd       2.76557786      11.10391634      13.94230441
Pd       5.48239061      11.00240564      13.91300667
Pd       8.20175236      11.05732129      14.05641999
Pd      10.97589248      10.96768538      13.93850022
Pd      12.72774382       6.38504974      16.42054449
Pd       9.27950959       9.71034153      16.32755070
Pd       1.39388472      13.20755784      16.16849210
Pd       1.71038231       6.93611232      16.02169806
Pd      12.47970202       9.10565456      16.29820358