115
Lattice="13.75323 0.0 0.0 0.0 13.75323 0.0 0.0 0.0 23.89" Properties=species:S:1:pos:R:3 entry_id=7 rank=0 energy=-572.5740356445312 parent_id=5 pbc="T T F"
Pd       0.00000000       0.00000000      10.00000000
Pd       2.75064538       0.00000000      10.00000000
Pd       5.50129076       0.00000000      10.00000000
Pd       8.25193614       0.00000000      10.00000000
Pd      11.00258152       0.00000000      10.00000000
Pd       0.00000000       2.75064538      10.00000000
Pd       2.75064538       2.75064538      10.00000000
Pd       5.50129076       2.75064538      10.00000000
Pd       8.25193614       2.75064538      10.00000000
Pd      11.00258152       2.75064538      10.00000000
Pd       0.00000000       5.50129076      10.00000000
Pd       2.75064538       5.50129076      10.00000000
Pd       5.50129076       5.50129076      10.00000000
Pd       8.25193614       5.50129076      10.00000000
Pd      11.00258152       5.50129076      10.00000000
Pd       0.00000000       8.25193614      10.00000000
Pd       2.75064538       8.25193614      10.00000000
Pd       5.50129076       8.25193614      10.00000000
Pd       8.25193614       8.25193614      10.00000000
Pd      11.00258152       8.25193614      10.00000000
Pd       0.00000000      11.00258152      10.00000000
Pd       2.75064538      11.00258152      10.00000000
Pd       5.50129076      11.00258152      10.00000000
Pd       8.25193614      11.00258152      10.00000000
Pd      11.00258152      11.00258152      10.00000000
Pd       1.38840852       1.39213291      11.96428904
Pd       4.11555481       1.39755181      11.97319849
Pd       6.84175828       1.39236475      11.99175838
Pd       9.57512057       1.39592898      11.89594876
Pd      12.38684272       1.37174114      11.92044161
Pd       1.38949936       4.11826000      11.97078059
Pd       4.10616127       4.11989748      12.00015321
Pd       6.84126298       4.12432598      11.99997963
Pd       9.56728621       4.13975942      11.94281254
Pd      12.36578195       4.13265160      11.93417299
Pd       1.37110082       6.89256210      11.94010419
Pd       4.13935064       6.87026939      11.96482277
Pd       6.87097415       6.85831372      11.95140951
Pd       9.64205429       6.82915781      11.94515418
Pd      12.39111484       6.85622887      11.94896407
Pd       1.36279046       9.65696437      11.96198918
Pd       4.11777592       9.66324146      11.95099537
Pd       6.89476706       9.64088005      11.95142944
Pd       9.64982872       9.59779534      11.89439304
Pd      12.42487279       9.60955999      11.94161946
Pd       1.34378737      12.39389342      11.97059476
Pd       4.08765961      12.40957259      11.97629915
Pd       6.86816975      12.39901143      11.97280504
Pd       9.63028672      12.36702810      11.91406436
Pd      12.37292657      12.33344557      11.99714017
Pd      13.67023980       0.01523812      13.93593541
Pd       2.75057837       0.03155322      13.95812356
Pd       5.49782165      13.71651031      13.98764567
Pd       8.20819732       0.05040225      13.97987329
Pd      10.91040113       0.07492787      13.87788431
Pd      13.74048359       2.72241779      13.85665170
Pd       2.65044356       2.80186884      14.18205585
Pd       5.41944550       2.66957014      13.99540721
Pd       8.27414739       2.72391794      13.99698676
Pd      10.96745901       2.77753403      14.07509097
Pd       0.01075017       5.50691551      13.94826771
Pd       2.74250667       5.51179711      13.94621060
Pd       5.50374756       5.60339209      14.05027566
Pd       8.24735411       5.47320459      14.02551648
Pd      11.00308038       5.47455357      13.96544725
Pd       0.07667970       8.23097397      14.01619060
Pd       2.85958328       8.20856711      13.89414115
Pd       5.63369326       8.31217623      13.97021351
Pd       8.36455342       8.26947298      13.97288999
Pd      11.10850206       8.25253993      13.88750994
Pd      13.72910798      11.01810631      14.20892243
Pd       2.74270407      11.06159328      13.93977639
Pd       5.46223993      11.00181975      13.90792334
Pd       8.17660240      11.06333841      14.06372779
Pd      10.94803648      10.96362053      13.94801354
Pd      12.64042744       6.40609625      16.40423101
Pd       9.20107713       9.72883112      16.34359319
Pd       1.33387425      13.24498526      16.16389955
Pd       1.62396914       6.87047374      16.00622059
Pd      12.41236122       9.12088986      16.29565559
Pd       9.33773504       1.11268300      16.46408410
Pd       4.30059026       1.22682606      16.25402295
Pd       6.01132887      10.16573330      16.44919442
Pd       4.19257752      12.20734339      15.97706817
Pd      12.04744635      12.57519760      16.06769638
Pd       0.37568676       4.02380905      16.25500897
Pd       3.53961035       4.49804083      16.30697677
Pd       9.71562403       4.05203050      16.78747040
Pd       3.10056633       9.50745153      16.23620106
Pd       7.44067558       6.97314148      16.31714608
Pd       6.86866009      13.38520977      16.35540482
Pd      10.08657963       7.35059312      16.14976321
Pd       6.87435966       3.21590942      16.45616768
Pd      13.04096272       1.25571257      16.80580633
Pd       4.54265118       7.09650496      16.10360679
O        8.49310270       2.63165564      17.39294719
O       11.00285183      10.51686304      15.99823717
O        0.05362131      11.73906970      16.20938923
O       11.13894409       3.13280012      17.85217748
O       11.14125969       1.79097714      17.64240339
O        4.68539485       8.86372815      17.14468003
O        2.42104640       1.15290332      15.76617503
O       13.62014952       0.22210734      18.41057227
O       10.26989181      13.32643533      15.74100902
O        1.53225986       9.73697606      15.03009307
O        1.07512274      13.46267513      18.23590569
O        1.83329304       5.08022348      17.03915775
O        7.93334264       4.99343636      16.06021416
O        7.53922770       8.84615122      16.92999618
O        5.30715473       4.07060013      15.52536132
O       12.67537346       2.79650897      15.56403383
O       10.92417546       5.45066696      16.05161131
O        0.05847106       7.85276479      16.95574906
O        6.11126065       1.37877838      16.92144266
O        7.45822955      11.51669118      16.00540338
