13
algorithm=ase_bh size=13 seed=0 index=0 energy=-39.20814025766405 step=1
Ar 0.4461554504278056 0.7374806583526449 0.476933762313299
Ar -0.2215047559447291 -0.1668156700426449 0.4200509863133111
Ar -0.09055548159378612 1.537383535807539 1.004323249403275
Ar -0.6737772405821101 0.8332927919181108 0.3647324637696545
Ar 0.01862279834930767 1.547225491224416 -0.1292340496008166
Ar -0.2422780878713466 -0.643679371410857 1.421610272742357
Ar 0.7297214217897765 0.9447199659190786 1.521952890098779
Ar 0.6846373814400878 -0.1113726562126668 1.118889437680417
Ar -0.8664229063741044 1.146830122758713 -0.6843445780547881
Ar 0.7967942634054822 -0.1904769632696068 -0.005746176610473707
Ar -0.0131043753730887 0.4592084767664499 -0.4762769353006384
Ar 0.4131963331109685 -1.057036650582487 0.6007897319560632
Ar -0.2514272662783511 0.4718323389481588 1.324236783304025
13
algorithm=ase_bh size=13 seed=0 index=1 energy=-39.20814024060676 step=2
Ar 0.4443621574056796 0.7393812779765991 0.4750707847071487
Ar -0.2190291713922098 -0.168260242497989 0.4216844397793489
Ar -0.09413628474188648 1.537081241745273 1.003958562916883
Ar -0.6764908179135987 0.8295190659488023 0.3673760986549669
Ar 0.01027327264527766 1.546432967696024 -0.1300541120402118
Ar -0.2333950132050408 -0.6443240016501943 1.423731591068358
Ar 0.7311804594869377 0.9489239070944893 1.518737072798305
Ar 0.6896479290783774 -0.1077284271303468 1.116785190388818
Ar -0.8749961660522321 1.14100947736259 -0.6812045149862003
Ar 0.7976496212288547 -0.1872695828319794 -0.008205839653584457
Ar -0.0173396101700434 0.4579722669611439 -0.4760224611253429
Ar 0.4207624023771259 -1.055182605743981 0.6006135867110829
Ar -0.2484312442413294 0.4710367252464293 1.325447438794897
13
algorithm=ase_bh size=13 seed=0 index=2 energy=-39.20814029862051 step=3
Ar 0.4508456106279176 0.7334145712077766 0.4877540685865479
Ar -0.2336587863560563 -0.1549814636550763 0.3930986859144893
Ar -0.06387340290116805 1.513157532765713 1.064912642791758
Ar -0.6686670707926591 0.854251957092973 0.3978057917390272
Ar 0.02930193635984261 1.581524079889879 -0.06805745111061948
Ar -0.2487260849902398 -0.684131712194896 1.368147026075089
Ar 0.7529314530879057 0.8797690956114169 1.537867133508463
Ar 0.6831853706606141 -0.1524191598232134 1.080081486703525
Ar -0.8705981038825056 1.22646093407338 -0.6301131766251953
Ar 0.7778975223215367 -0.1733707628914203 -0.04873723634143864
Ar -0.02681745744025917 0.5142660753683762 -0.4718090803663925
Ar 0.3874848343069429 -1.064323642383645 0.5167104874822853
Ar -0.2392482864959606 0.4349745651155943 1.330257459656932
13
algorithm=ase_bh size=13 seed=0 index=3 energy=-39.20814027625018 step=4
Ar 0.4623542602656764 0.7210348235041529 0.5120518360495427
Ar -0.2500329456848241 -0.1365862417680344 0.3580100144343386
Ar -0.03875278200375336 1.489471218722659 1.115735015723704
Ar -0.6498121916786344 0.886133463112851 0.4032976607426517
Ar 0.08394805138548084 1.609920360730878 -0.01004990046815273
Ar -0.3068497833272614 -0.7120103849316888 1.304900239810258
Ar 0.7440069176292794 0.8048243315019199 1.574629705327831
Ar 0.6495720164890424 -0.2005071217658399 1.064539351277686
Ar -0.8139435648150642 1.315334290382803 -0.6090318630926373
Ar 0.7706081371551428 -0.1694713122897992 -0.06153259722792861
Ar 0.0005707416582997018 0.5664302391742702 -0.4676469660478983
Ar 0.3361019339744873 -1.072533085954285 0.4499754302648115
Ar -0.2577132565419606 0.4065514897569726 1.323039911220258
13
algorithm=ase_bh size=13 seed=0 index=4 energy=-39.20814023449134 step=5
Ar 0.4358101074761064 0.7551121040782621 0.5356336520617809
Ar -0.1835727142913658 -0.1670393182246836 0.3546754597568924
Ar -0.1818760797540232 1.495102836300864 1.061855293282828
Ar -0.6720201638343923 0.81695386833769 0.3236967454998935
Ar 0.03129474001132122 1.589351513994312 -0.05288583786620452
Ar -0.2763218304025281 -0.7141766639382602 1.315385756931653
Ar 0.6120102754446043 0.8980933053644273 1.614476890792201
Ar 0.6505719002470037 -0.1277117355791746 1.139015156893368
Ar -0.7801025323068514 1.196599631223519 -0.7156062304714367
Ar 0.8698989575998256 -0.1226179934292762 0.02750121081112025
Ar 0.07953892471231516 0.5282724421916526 -0.4735950558817878
Ar 0.4698590953630629 -1.043664758868723 0.5350518387710913
Ar -0.3250331457591684 0.404316838726254 1.292712957433066
13
algorithm=ase_bh size=13 seed=0 index=5 energy=-39.22132553953003 step=6
Ar 0.4025294248610701 0.9442406870043704 1.042858848922089
Ar -0.2208805599397075 0.1987272308119744 0.4950770627212628
Ar -0.6262969452341927 1.188930950340106 0.6903135776222213
Ar 0.236117913036848 1.05835023442106 -0.04558862748113086
Ar -0.5860148264175927 1.776274494078075 -0.2568998447405865
Ar -0.4902805773125822 -0.6465426377570536 1.138310037625576
Ar 1.397646408864857 0.4967675203710438 1.262652339603518
Ar 0.4852045942750663 -0.142894710268205 1.285182196513708
Ar -0.7696009935913908 0.6748096025113378 -0.3236740286554684
Ar 0.880373988237826 0.2325934904381794 0.3129199291968137
Ar 0.1553583526885184 0.03345512649772164 -0.5140660195106472
Ar 0.3215997224584248 -0.7328329192917986 0.3354375053887029
Ar -0.4556989674212336 0.426713001020049 1.53539486080841
13
algorithm=ase_bh size=13 seed=0 index=6 energy=-37.1803314457043 step=7
Ar 0.2634597327077097 0.8084454880822495 0.8579649058642875
Ar -0.224121589381799 -0.158720290506325 0.5209213202458264
Ar -0.8140931465252231 0.7720534817318245 0.585829684466585
Ar -0.1819094628118264 1.643258748797504 0.2883373980652603
Ar 0.0692398887249261 1.578937769685881 -0.7964853319707907
Ar -0.2743437346014009 -0.8424645660887473 1.38963279061122
Ar 1.342637827979259 0.6311421889166613 1.048821558175336
Ar 0.5806752147702555 -0.1362831247116714 1.327800712542179
Ar -0.9313240105451025 1.220066117310457 -0.4294931596769964
Ar 0.8267069355937923 0.0544085318591303 0.2478663871611362
Ar -0.007223354363843811 0.6431314608157148 -0.2024698616448362
Ar 0.5261429714462066 -0.9704227055373975 0.5987375059839305
Ar -0.445789738487044 0.265038969821581 1.520453928191333
13
algorithm=ase_bh size=13 seed=0 index=7 energy=-40.96700190703122 step=8
Ar 0.888570994130478 0.9965793255909635 0.3785559469860896
Ar 0.09156003321227969 0.2670385754441804 0.5385854523707094
Ar -0.7404867800541783 0.6447848138366912 1.136975465488154
Ar -0.8410229772295024 0.455336540165689 0.02852689757407197
Ar -0.1948782816503628 1.311105466615635 0.4076174817480777
Ar -0.7082496127156678 -0.424124868110709 0.7666381613921619
Ar 1.018675135671317 0.1332830694064972 1.100637890298729
Ar 0.0109603757484692 -0.08433755718793004 1.569785723168589
Ar -0.673238308624304 1.365638493416752 -0.5946172816167979
Ar 0.9622561596287564 -0.06337789842951462 -0.01107429040284208
Ar 0.1950276580791168 0.6790598948888553 -0.4538147124363252
Ar 0.405367755321845 -0.7471783622595063 0.7421768213600133
Ar 0.3155153829876625 0.9747845767992561 1.347924282083839
13
algorithm=ase_bh size=13 seed=0 index=8 energy=-39.19910615164562 step=9
Ar 0.6877963300308828 0.6493957200874323 0.8301513500316401
Ar -0.07550523453519209 0.02308955613261353 0.287938822860004
Ar -0.3885160064163938 0.819849940118513 1.023373766482797
Ar -0.95256601422398 0.643855882308471 0.07067556691111651
Ar 0.0649659981496193 1.119763708825587 0.05633045625829435
Ar -0.9744172352118005 -0.113759157317547 0.9131245560449247
Ar 1.12827180171268 0.0166927224885936 1.625678006144638
Ar 0.06416985928743499 -0.1540309266218905 1.354601080773403
Ar -0.688343193376877 1.390098042812954 -0.7159322669430116
Ar 0.8301419217556676 0.3507134705937692 -0.2354316127766513
Ar -0.1891779688470638 0.3894343738272553 -0.7408982567032794
Ar 0.8830929389803061 -0.4140785503655928 0.6141089908173404
Ar 0.3401443372006284 0.787567287286703 1.874197378113255
13
algorithm=ase_bh size=13 seed=0 index=9 energy=-43.89940494112223 step=10
Ar 0.05615886202526656 0.4237373561886137 0.5352239699889632
Ar -0.7876338658280094 0.3708308214895611 1.210201593588144
Ar -0.5008131760908358 1.338824089220874 0.6861070105007339
Ar -0.9267096130795129 0.4716028791526916 0.08572720712570553
Ar 0.6281285259383704 1.341934506467483 0.5467468275406052
Ar -0.5158119206331198 -0.4944634066449775 0.5236923632291812
Ar 1.03902890415582 0.3758809120931774 0.9847282431901655
Ar 0.164045988363973 -0.2242935611667307 1.394754439465462
Ar -0.05173010242511845 1.07177524141137 -0.3243073305660794
Ar 0.8999482360050814 0.4766311829563798 -0.139752656693291
Ar -0.06098828916496907 -0.0612618188463135 -0.4246821562170251
Ar 0.6131343859713486 -0.4913523695614492 0.3843480506207989
Ar 0.1732995992676191 0.9087462374161761 1.495130276241106
13
algorithm=ase_bh size=13 seed=0 index=10 energy=-37.80950028781053 step=11
Ar 0.5595952384949302 0.8508678114170832 0.5324983569115882
Ar -0.2608129707123861 0.1133776905828873 0.2923558014951452
Ar -0.4443522713437217 0.9364829110418832 1.016930260701243
Ar -0.9348614718094816 0.9314782436000554 0.0163363413794241
Ar -0.1266157435812043 1.666529663698163 0.2368455242292689
Ar -0.8327706333012671 -0.103349090947481 1.204633738817743
Ar 1.333869173093801 0.3158616216348635 1.136291884781669
Ar 0.2523481234892871 0.1212080962682106 1.298573491334641
Ar -0.5984621900148761 1.643264748933962 -0.7761795229788313
Ar 0.775416830122174 -0.2223053123914183 0.335455618714344
Ar 0.08965831604788987 0.8196308588751299 -0.4676565465918411
Ar 0.9620698013165057 -0.7323245679018651 1.308432059297746
Ar -0.04502466729573836 -0.832130604634613 0.8234008299223295
13
algorithm=ase_bh size=13 seed=0 index=11 energy=-39.1444870409354 step=12
Ar 0.5285930220779281 1.340631476949071 0.06303991006060662
Ar 0.06094880931932021 0.6351779935136941 0.7569120662101001
Ar -0.9403776628592845 0.8167759782769775 1.147647266054145
Ar -0.8104823954343463 0.1206519108894601 0.281333446009777
Ar -0.608471401047198 1.206612966176698 0.1178124609986548
Ar -0.4568676205801625 -0.1965119877476004 1.28999413895901
Ar 0.6649715981988219 -0.05995325468947028 1.335772033988598
Ar 0.1625893154658755 -0.4171425525054395 0.3973464118346065
Ar -0.100246804033173 1.372516725032053 -0.8612539021362441
Ar 0.9984668794958502 0.3290694978977216 0.2975763947061213
Ar 0.06893937485344843 0.4088175953316646 -0.3332375430957165
Ar 1.209696942665867 -0.7190058764125721 0.6178221315115781
Ar -0.04770252361703545 0.6709515974646043 1.847153022913234
13
algorithm=ase_bh size=13 seed=0 index=12 energy=-38.34230546908026 step=13
Ar 0.3514489509055792 0.8590610169131097 0.6080121601845618
Ar -0.3081714983319975 0.1572793645685614 0.02803465736422743
Ar -0.2570517324511664 1.563961630663102 1.193395562376903
Ar -0.6579727266358539 0.5489855117924722 1.007558292911271
Ar -0.5615479418834978 1.247504129845943 0.1426530071932126
Ar -0.8725454096302332 -0.5063038169031433 0.7168978676606832
Ar 1.15076521990912 0.294189503344276 1.106838161013602
Ar 0.1661443854998851 -0.1930125825973154 0.9635573179276372
Ar -0.7272256371862375 0.7234434329287464 -0.8283626334846621
Ar 0.796275582169907 0.02486973561612613 0.05434923737708053
Ar 0.3249731041000747 0.905612688919804 -0.4898277753836066
Ar 1.091503252526596 -0.774178576725929 0.7743965763191223
Ar 0.2334619855137343 0.6571800318111081 1.680415406554439
13
algorithm=ase_bh size=13 seed=0 index=13 energy=-37.72910155318494 step=14
Ar 0.5252834777325353 0.6553981681109965 0.2324772672233195
Ar -0.1479090453218744 0.3493260842780678 1.123181747050568
Ar -0.6321396702287375 1.250155871731755 0.7563267683629264
Ar -0.5312455974306759 0.3504405289484302 0.09205855794967215
Ar 0.1198843183755276 1.655153832673553 0.06552546754595066
Ar -0.7355007829667781 -0.5200343621267458 0.7937475487182469
Ar 0.9260667215866263 0.1930932514768678 1.147085182143071
Ar 0.2022341403099435 -0.643236564941685 1.442506506342979
Ar -0.883558299640425 1.329273279042321 -0.3200377490577993
Ar 0.275409061288051 -0.3877270905517983 0.3675953910838441
Ar 0.03279636443167416 0.8551972620243751 -0.7305354050777567
Ar 1.141370620243587 -0.8650765138036338 0.8731018264155965
Ar 0.4373662261264583 1.286628323314362 1.114884729313848
13
algorithm=ase_bh size=13 seed=0 index=14 energy=-39.29750709941621 step=15
Ar 0.2918927463933953 0.6773156478468835 0.6938503289301121
Ar -0.2494195581867464 -0.5739231988750153 0.4202479786089401
Ar -0.4718557859048668 1.456683062660972 0.5534684579344155
Ar -0.7400756589494247 0.3946392918548198 0.4200779784280734
Ar 0.3750180376085922 1.340231176685165 -0.1801331745500028
Ar -0.9026518877537558 -0.2875902140700938 1.280931534453676
Ar 1.208577931873716 0.3712332836793125 1.20067108060697
Ar 0.1995936388668494 -0.1656403203877225 1.368399864965514
Ar -0.6346550298055392 1.016661075567236 -0.4776620895057542
Ar 1.192912144767732 0.6317775521832062 0.06581404681155212
Ar 0.1461281258260582 0.2311025300295389 -0.2794049044503327
Ar 0.8076753634480357 -0.3219227054793336 0.4415605841045365
Ar -0.4930825336781378 0.7380248884818922 1.450096151676767
13
algorithm=ase_bh size=13 seed=0 index=15 energy=-36.72068002966848 step=16
Ar 0.7165681027481031 0.7906565819940949 0.7490773278806665
Ar -0.1238599271959324 0.1307926010424321 0.389558861484895
Ar -0.3243257419551201 1.152895896039958 0.8305831506750558
Ar -0.9461907798245127 0.7523371580099129 0.002836377920980029
Ar -0.6083100656020004 1.818168175660515 -0.01504357411096642
Ar -1.004689151281793 0.2885306498489666 1.030583309683291
Ar 1.065684525193856 -0.04816997247599773 1.385311604220749
Ar 0.2164179762756669 -0.6838789752562385 1.038352237732925
Ar -0.6183836477008 1.209216991622573 -0.9586344726826708
Ar 0.9161399477422173 -0.1961030855252737 0.2847746764469119
Ar 0.155149316028972 1.020664332168719 -0.1805454953317759
Ar 1.266984275520278 -1.044641527187599 0.9205512229931633
Ar 0.01887270455698035 0.3181232442347943 1.480512611101241
13
algorithm=ase_bh size=13 seed=0 index=16 energy=-39.04365618523268 step=17
Ar 0.4737545069884369 0.6729603450308164 1.051496400773832
Ar -0.1605225965318122 0.07909718898779429 0.3415931730289227
Ar -0.6110886406906453 0.8664674727065248 1.011901178446122
Ar -0.9607150547245491 0.7135845007081768 -0.04247577363779993
Ar 0.04785570991846903 1.172333178019799 0.1698551546909149
Ar -1.159280543773159 -0.06455310886216653 0.7738520467066974
Ar 1.507279110321842 0.2986198512228923 0.9622277469349687
Ar 0.8361336511718187 -0.01981114919489746 1.829483424018975
Ar -0.5212364325331791 1.466396786424666 -0.739323490940386
Ar 0.8505055648882172 0.3952082217524412 0.04265592382446977
Ar -0.03407527526516938 0.4616122922118922 -0.6771808317910478
Ar 0.6812517346755683 -0.4239038753525474 0.8095736157017118
Ar -0.2198041999399267 -0.1094196334785307 1.424259270257086
13
algorithm=ase_bh size=13 seed=0 index=17 energy=-36.9528244017749 step=18
Ar 0.5414552117398002 1.248636696657868 1.223909901327128
Ar -0.4962027722738344 0.1243807076839801 0.1588960444437151
Ar -0.4240221533643607 0.6496492748408667 1.20252140243805
Ar -1.190521808797903 0.9332591815248498 0.4410945661649104
Ar -0.1211661413428956 1.224109635823999 0.3010495250787105
Ar -1.227872130025921 -0.07324520639481434 0.9622178068989085
Ar 1.428692898884648 0.5177767799194082 1.055222663267281
Ar -0.1589021897361981 -0.437372090141663 1.071292678421051
Ar -0.7080758436114242 0.9127234664998777 -0.5849853255018512
Ar 1.298069142896765 0.05747318029097866 0.01372716955893716
Ar 0.3529160503317318 0.5334526246190635 -0.4521935441262995
Ar 0.986296174363045 -0.5336756026761005 0.9439011122392139
Ar 0.4493910954424573 0.3514234215285483 0.6212638378047125
13
algorithm=ase_bh size=13 seed=0 index=18 energy=-40.18807128229766 step=19
Ar 0.6270285827500457 1.004339592122043 0.6016159141148835
Ar -0.2277251218635577 0.3614615791174944 0.2833342524087306
Ar -0.3649198656471981 1.095856690194916 1.117225531380498
Ar -1.175597173746708 0.8906861546747008 0.3747081976842025
Ar -0.2419487879328757 1.457996445562754 0.07454966368605949
Ar -0.8498402631765303 0.08289781098171195 1.132154892701569
Ar 1.352849355069798 0.3361807194716679 1.127675032883851
Ar -0.1036905243550756 -0.6573095418174782 0.6712250557256795
Ar -0.6780915579606696 0.7343209032869734 -0.643738141113226
Ar 0.7732134288414335 -0.05421731990690563 0.2630245730809317
Ar 0.4525166097785167 0.7562549520251337 -0.4741117612818813
Ar 0.9061546360920082 -0.6975573834402216 1.160935166023909
Ar 0.2601082166567258 0.1976814679040693 1.269319460719264
13
algorithm=ase_bh size=13 seed=0 index=19 energy=-38.31247202148341 step=20
Ar 0.4717796211389526 0.8541738315572099 0.7364956337749108
Ar -0.5267677831994086 0.4232212841097767 0.4320922507704794
Ar -0.4811712426239024 1.264625723816394 1.138806822760212
Ar -1.242357217182423 1.252529884545176 0.30207109527786
Ar -0.1716325677353949 1.437889042171585 0.0680243916916017
Ar -0.6682571720422598 -0.5625154116150834 0.9224454484502477
Ar 1.00525502883795 0.09717719788350257 1.338955930465579
Ar 0.3264821256861212 -0.2533579019514173 0.5322332227695595
Ar -0.750820688447548 0.7581255478857426 -0.5945191865573364
Ar 1.266416373562915 0.2661026974859399 0.2455567942673955
Ar 0.3051210451489023 0.4893737504021001 -0.30044118783881
Ar 1.30034539625514 -0.7619717944339807 0.6874290069729282
Ar -0.1043353848931293 0.2432182183199157 1.448767615209842
13
algorithm=ase_bh size=13 seed=0 index=20 energy=-39.22674537432056 step=21
Ar 0.5410118901988147 0.798592137388034 1.160424087557583
Ar -0.1241403039976987 0.1233131095777343 0.5703881902756388
Ar -0.5593202804901448 0.9568970998833175 1.171355952898782
Ar -0.9726713449450937 0.6671743083902838 0.161039333698871
Ar 0.021641800446353 1.183089050444073 0.2526884585532764
Ar -1.088842273670281 -0.01222765568444906 1.072488780084287
Ar 1.591766775831021 0.4808851066595492 0.9719482623630182
Ar -0.1065894473500907 0.03808517125952793 1.65700647954251
Ar -0.5945546644262203 1.319243731054503 -0.6625375700426733
Ar 0.4635449455078525 -0.5619589613819513 -0.05291116945388114
Ar -0.07475642288509685 0.3461080849434416 -0.4929901393953953
Ar 0.7838560611013138 -0.2864071523451348 1.005716114497523
Ar 0.849110799185182 0.4557980399879331 0.1433010574349281
13
algorithm=ase_bh size=13 seed=0 index=21 energy=-38.13396906994898 step=22
Ar 0.7754059613237496 0.5984910276413478 0.1860267621071592
Ar -0.1692309972661074 0.09316191859256791 0.4076960703042065
Ar -0.7094710232053409 0.6680165543285749 1.218310936971224
Ar -1.044683036915481 0.6995038486948809 0.1502896993618612
Ar -0.09978685352233022 1.218518993838738 0.4776201220202937
Ar -1.150441784898643 -0.2464484342987816 0.7722828803779866
Ar 1.479989211547509 0.4283324658609069 1.032061694440411
Ar -0.2210670850696831 -0.3198883832947014 1.425148551721874
Ar -0.705620270630682 1.634240748551351 -0.3568663192067382
Ar 1.555865712211217 -0.1851465545900271 0.09174532508881547
Ar -0.1120340770044433 0.6986374960348557 -0.5069738895463051
Ar 0.7328476574055939 -0.3731146439450864 0.8170091692008599
Ar 0.3982841205305501 0.5942870327622352 1.243566835172819
13
algorithm=ase_bh size=13 seed=0 index=22 energy=-37.16935751069582 step=23
Ar 0.3679776474783208 -0.2223200769926192 -0.1463579542181671
Ar -0.4190097909980582 0.1890720197974463 0.5240901812511641
Ar -0.1164232577554432 1.192830519674623 0.8957017285750515
Ar -0.9463975819403244 1.088541325313701 0.1589757704148236
Ar -0.1976034417319817 1.915880570717385 0.05050472138767607
Ar -0.758015188939421 -0.4803255015503402 1.342755675246082
Ar 1.051226518945902 -0.135709585772905 1.541340141513308
Ar 0.2633215570610064 -0.5879642976455927 0.9052260580686672
Ar -0.5928982882864711 1.383746196300085 -0.8571125546508932
Ar 0.6734580481929744 0.4514042301417854 0.6808444637439806
Ar 0.1121385994639967 0.8692879191867386 -0.1688268652509877
Ar 1.279351211261287 -0.4518887367848073 0.4778020867516364
Ar 0.01293150175412523 0.2960374877913626 1.552974385182132
13
algorithm=ase_bh size=13 seed=0 index=23 energy=-38.17530205048151 step=24
Ar 0.9188109048823669 0.3713363239722552 0.6835482480246703
Ar -0.01483657849119713 0.9160941151456676 0.8544123911460428
Ar -1.040783490233205 1.329159819447349 0.8788896941323273
Ar -0.7985895663658144 0.5819068278383117 0.09799720252835263
Ar -0.3302948721702274 1.589951677194914 0.03695959688895153
Ar -0.8395101711902402 0.2539727661673054 1.169782997064762
Ar 1.322125806927061 -0.06775560833233032 1.622001526756689
Ar -0.0725472447095514 -0.146595701547855 0.4673911721694169
Ar -0.5082673646874563 0.9916948484500557 -0.8937565734360793
Ar 0.8105192951884326 -0.3235057286218204 -0.1740519361336051
Ar 0.2891578364577559 0.6748086407812378 -0.1853803146368508
Ar 0.7758988998911617 -0.7132317239412909 0.8890586360715875
Ar 0.2183740790068234 0.05075581362306116 1.511065197438202
13
algorithm=ase_bh size=13 seed=0 index=24 energy=-39.20032449166892 step=25
Ar 0.6375629245209361 0.8032972246589969 -0.1508066575042015
Ar -0.08090917651121125 0.1740775391061517 0.3707223139342862
Ar -0.5175272226588022 0.7011903764896402 1.255603799943861
Ar -1.117427012466889 0.5069411037612105 0.3290152158305112
Ar -0.2857727139396864 1.268307530534782 0.3297464823748515
Ar -0.7804466092260836 -0.359752124078622 1.01234636558526
Ar 1.283276050234518 0.2904274057737091 1.536656021221819
Ar 0.2456773367123475 -0.09028057751943772 1.401942712364351
Ar -0.4170900256610318 0.6256072394600138 -0.5672110030584369
Ar 0.9701768831551604 -0.05866319713988131 0.5255471401295323
Ar 0.07887004140076428 1.624055996989686 -0.6586035479004406
Ar 0.1691664354513467 -0.8650727847634392 0.6165315839665985
Ar 0.5445006234945444 0.8884563369040535 0.9564274111264794
13
algorithm=ase_bh size=13 seed=0 index=25 energy=-41.04458336471072 step=26
Ar -0.06913625024879097 0.3796244416556598 0.3400323284094649
Ar -0.7154902348202878 0.3723477620815672 1.22067741223349
Ar -0.5492943784543791 1.320020165669991 0.6221669644800938
Ar -1.134072338111269 0.4632827346025865 0.173174939111306
Ar 0.5113397751944292 1.29775192953939 0.2240507883072146
Ar -0.6367445701896699 -0.5208522268475466 0.5291018250392544
Ar 1.097716623409561 0.2702383371504175 1.674791515763248
Ar 0.234492364950988 -0.2364739177020608 1.18736924158468
Ar -0.3567493035476471 1.049631186314786 -0.4582871283277863
Ar 0.996699094125829 0.338463073315075 0.5681676400663338
Ar 0.6198446839944575 0.4270102199050116 -0.4917333789248559
Ar 0.451598367797448 -0.5432712147055156 0.1241182491183099
Ar 0.2798537004052432 0.8908195791975013 1.244287441153716
13
algorithm=ase_bh size=13 seed=0 index=26 energy=-38.19276887895257 step=27
Ar 0.6143540183198207 -0.1393462915938753 0.340253491078332
Ar -0.4853113919808946 -0.07494859249276473 0.4182134799742571
Ar -0.7865149205070494 0.5548652237529117 1.282331059278839
Ar -0.8062895960180543 0.9789779626553318 0.2303950401443516
Ar 0.1317839076482195 1.582307055490805 -0.02421645171564681
Ar -0.8775566990457135 -0.5605165948078213 1.337906583132581
Ar 1.107340663863854 0.4500277479140749 1.141474436377247
Ar 0.1365778798027047 -0.1032289326917019 1.358237366311011
Ar -0.5972561427034998 1.289847879636774 -0.8206001318311323
Ar 1.01866085805751 0.8756181612762218 0.09021130908933239
Ar 0.0498820434498712 0.521874802672456 -0.3427945882319262
Ar 1.081500023067467 -0.6687161784102998 1.199140374678627
Ar 0.1428868905516769 0.8018298267747515 0.7473658697285968
13
algorithm=ase_bh size=13 seed=0 index=27 energy=-37.75015955209326 step=28
Ar 0.4024707875934223 0.8981544810746473 0.6576120347912867
Ar -0.6403036380546043 -0.1280450976354453 0.7568725108782474
Ar -0.6794244026513812 0.9887330525430948 0.8718825396757161
Ar -0.4755495486986714 0.5165768272362048 -0.1049401570037992
Ar -0.1891458265953823 1.578043028876614 0.02915393624242045
Ar -0.7053977419047452 -0.4568760791700497 1.818406451376955
Ar 0.9891911026142448 0.0941495266912271 1.179008424517344
Ar 0.2050200052657984 -0.6871595283473123 1.20426477435162
Ar -0.3792898722342131 1.176699156335805 -0.996751035908563
Ar 1.337754640787774 0.4582355961410171 0.2011539238956316
Ar 0.5198219159196807 0.8130730008579784 -0.4419201487273793
Ar 0.3656046699148181 -0.1109571020606031 0.2584899037940834
Ar -0.0206945574508282 0.367965207633683 1.524684680130906
13
algorithm=ase_bh size=13 seed=0 index=28 energy=-38.25241315698992 step=29
Ar 0.6996693589301108 0.7481981002965034 0.5250071263451608
Ar -0.3462355453003261 0.3324476877267012 0.6404061331551216
Ar -1.012635605210685 1.133970764149978 1.006697866919224
Ar -1.012794451867455 0.8318500015193202 -0.08198734077074778
Ar -0.1615373858117739 1.411696985385879 0.3502050882341423
Ar -0.271960558687137 -0.7341344838271323 0.9328645791500254
Ar 1.413089863288246 -0.07758599125137972 0.7503999398564232
Ar 0.461085911200759 0.01182155972216876 1.322811115305373
Ar -0.4113270378762571 1.518647657586492 -0.7281761147079341
Ar 0.4596809272414375 -0.2923872182897637 0.2152480879929589
Ar 0.048046769535794 0.5693084867191829 -0.363583769327519
Ar 0.8171013060016183 -0.9943437499839646 1.003147395506043
Ar 0.04787398306157842 1.049102270422876 1.384877730356199
13
algorithm=ase_bh size=13 seed=0 index=29 energy=-39.27846192015915 step=30
Ar 0.6595037464484144 1.038267333745239 0.4610436852602818
Ar -0.9344744330882521 0.3698040772581161 1.076001327680786
Ar -0.3329036111691522 1.331078038932541 0.9256736493253058
Ar -0.3199710199380245 0.5370681114889598 0.1649493412163721
Ar -0.09687879658171626 1.579122883302354 -0.1455695907318816
Ar -0.3927205994998449 -0.4109974394180008 1.70623587410813
Ar 1.252192899294491 0.2778924859672298 1.050640998298893
Ar -0.3523403738767801 -0.4710054098619263 0.6009149772233225
Ar -0.5922622099863439 0.8681416264319453 -0.8550346937061851
Ar 0.6062272530315488 -0.05739199687601246 0.2165037917322878
Ar 0.4826540147428405 0.7138631554221059 -0.5844263199786573
Ar 0.5920679156740883 -0.6381648313017336 1.176979981337087
Ar 0.158962749454643 0.3709140350860448 1.164004816248729
13
algorithm=ase_bh size=13 seed=0 index=30 energy=-39.11675093986878 step=31
Ar 0.8816017168182901 0.1837007760224323 -0.146692731196689
Ar -0.1613484011812462 -0.2233188753248005 -0.09447959427214626
Ar -0.6122954980321653 0.9113583121983906 1.255907096340189
Ar -0.8797138715643611 0.5610884788213607 0.2183295585133007
Ar -0.3618753328149053 1.538079181731028 0.3343658774170269
Ar -0.5118143089924544 -0.1679229318674265 0.9709474712520039
Ar 1.179462996938698 -0.3858395184333164 1.651842817556225
Ar 0.2930059440269457 0.2889083064168118 1.596170687411969
Ar -0.9981881190106688 1.342080333740918 -0.5643469507159432
Ar 1.201204944834303 0.4558860618890069 0.9156132801948546
Ar -0.01935003820322583 0.8130083728504361 -0.4858791922020068
Ar 0.5424633042296177 -0.4225897322969292 0.741098152292151
Ar 0.1769041974570804 0.6141533044289486 0.565041365423536
13
algorithm=ase_bh size=13 seed=0 index=31 energy=-38.12263632694577 step=32
Ar 0.1867159823387768 0.9536441009543083 0.6857837132320879
Ar -0.6988829572693449 0.7032196059892756 0.01500116143409676
Ar -0.7655163431149181 1.509549710895721 0.7720283186468058
Ar -0.7045485005964611 0.429987645442699 1.098791053234266
Ar -0.1019383619265717 1.630868048091888 -0.1373173967236968
Ar -0.4211761361960222 -0.6513970062629252 1.260816846218734
Ar 1.391530904305946 -0.1817785522712546 1.4595980590948
Ar 0.3309541114621417 0.1482046732200445 1.411236767594668
Ar -0.4327993372318591 1.022347577750873 -1.016222262755921
Ar 0.9917851166038617 0.2125333068049854 0.4955898959121149
Ar 0.3687607736507892 0.6246540369102703 -0.3499302652037546
Ar 0.640659459472894 -0.7868951490797166 0.8918956465419148
Ar -0.05548717699331857 -0.1063459282693118 0.3706463007883519
13
algorithm=ase_bh size=13 seed=0 index=32 energy=-39.11774959431412 step=33
Ar 0.1540366939075339 0.1704531493589414 1.081310256645176
Ar -0.8419341189660167 0.1190426735225695 0.6121351318083095
Ar -0.4226831200309137 1.090595648033455 1.022235086821338
Ar -1.004314904103047 1.106381809895464 0.08084353686240864
Ar -0.04378197892590813 1.715516296289991 0.1911276526871057
Ar -0.3874488117441849 -0.7813539554405062 1.153101601299988
Ar 1.218934719639128 0.2374442440747821 1.337788518028122
Ar 0.006166313292979576 -0.4768644426579695 0.1656704418011717
Ar -0.3123251640527325 1.244430284562907 -0.7886753210686123
Ar 0.9439040776374774 0.1178598206214412 0.2734842645157712
Ar -0.01361313162805858 0.6175936403057879 0.07262720313173138
Ar 0.7454616592715357 -0.7416247787045092 0.9683426852386119
Ar 0.6876553002081196 1.089117680314506 0.7879267802433479
13
algorithm=ase_bh size=13 seed=0 index=33 energy=-37.45255181588394 step=34
Ar 0.7031168989736956 0.4823584755323369 0.02292151125685423
Ar -0.3038034558043631 0.04715426121613867 0.2122821643522421
Ar -0.7755994506502495 1.04331007249025 0.2042619392192936
Ar -0.8484834336186228 0.3561849539457461 1.117802727665622
Ar 0.2364219013687055 1.501320080623687 -0.03194851839849036
Ar -0.4561216596370051 -0.7003961482034295 1.013797331093784
Ar 1.083952224361273 -0.5331270056358927 1.631050822312107
Ar 0.1388769124373888 0.0476102622393333 1.563252807214959
Ar -0.6428537228930913 1.689699455508151 -0.6954583775639939
Ar 1.083958632924897 0.4484454944028495 1.083603330946572
Ar -0.1552200311547222 0.6844200537476478 -0.6707109417908546
Ar 0.5715369782773162 -0.4323887379351256 0.6509299655885393
Ar 0.09427573992068643 0.8740008522451704 0.8561330761178335
13
algorithm=ase_bh size=13 seed=0 index=34 energy=-38.26094756475 step=35
Ar 0.1293683222470387 -0.06560576576230408 -0.002382009666984795
Ar -0.8316394283483327 -0.1615376170381611 0.5720644397891196
Ar -0.2040784129019495 0.7354330684308642 0.726568047343047
Ar -0.7248933048948712 0.5990604000805088 -0.2425075579361817
Ar -0.520043476300065 1.62688068494793 0.1527236752446038
Ar -0.6616867845247888 0.2566449841654821 1.609777496877219
Ar 1.177693208619987 -0.1582400739037056 1.478005532722468
Ar 0.1506646094865158 -0.2773994263095069 1.077984834702462
Ar -0.3989188810421459 1.404384543270434 -0.9401685259564702
Ar 0.8628320177739139 0.4957643946722906 0.6355411923854627