13
algorithm=ase_ga size=13 seed=0 index=0 energy=-27.69887840956149 step=1
Ar 2.175770273741409 1.342162591028285 -0.6464978104327979
Ar -1.418515706018159 0.7427320832214407 1.971356118617482
Ar 2.801531365078843 1.288206567418035 0.2812512929793439
Ar 2.563191972834565 2.281316626119374 -0.1702878933696376
Ar 1.921380406661976 0.606021278840102 0.1579343074039335
Ar 1.74856897668674 1.700242175012798 0.325366125710453
Ar -1.679045761895458 -0.671478558677906 0.8498455981907981
Ar -0.9776222138208377 -0.2119398379234775 1.590470755126525
Ar -1.574631689665272 0.4410422154246588 0.9057571892946192
Ar 2.143779987255254 1.067412727732079 1.156208977631177
Ar -1.591477739847323 -1.10131073743394 1.878667521007935
Ar -2.089450229294965 -0.1150827897268899 1.738239217426408
Ar -2.581119613566221 -0.01889659982819687 0.7435684018754148
13
algorithm=ase_ga size=13 seed=0 index=1 energy=-37.5412228090481 step=2
Ar -0.05182664452117697 -0.06941982348002596 -1.070143506229044
Ar -1.059765894953587 0.2496072800193694 -0.7538664315113101
Ar -0.6859022716923231 -0.7963453303570101 -0.5745177358940653
Ar -0.07360142580618242 -0.1792225724484837 0.8659358223465051
Ar -0.6611384640228335 0.4857597263309161 -1.796092420269534
Ar -0.2435178986551393 0.4238407600849667 -0.03689363701098766
Ar -1.050875691052911 -0.2313112510303004 0.2907689987654391
Ar 0.3184580066889014 -0.5074015966218685 -0.1320330908953822
Ar 0.7141346729184185 0.5236663144505168 -0.5738041310546523
Ar -0.4060954362138226 -1.146047212557634 0.4350707172963566
Ar -0.962381105308569 -0.7021549723817678 1.297326180980162
Ar -0.2512195851453745 1.039655078877608 -0.9300333206446756
Ar 0.4703402121795379 0.6781481691178837 -1.684580119389095
13
algorithm=ase_ga size=13 seed=0 index=2 energy=-30.61306618574128 step=3
Ar -0.9541293916954439 0.5541812101285463 -1.189824396558051
Ar -1.743691701835529 1.510848203858501 0.2057529495533265
Ar -1.527099601969466 0.6895077941650767 0.944377595777439
Ar -1.882677170735506 1.047249970805025 -0.8034142411273213
Ar 1.048561063641011 -2.690661786773785 -0.6030236014992169
Ar -0.7104468835611856 1.379551316567778 0.6126368923889577
Ar 1.906363050324427 -2.567920556803394 -1.316487853307347
Ar -1.506808094528043 -0.2796256038034756 0.3857757235491898
Ar -1.124736684538534 0.633864684928894 -0.09661317477502979
Ar -2.500314184982621 -0.5531845406613465 -0.04365856849430676
Ar -1.747027117268301 -0.05948973241776703 -0.7021807628273117
Ar -1.571891462495022 -1.102411805291964 -0.3621166876120496
Ar -2.237994137860134 0.5191675816257328 0.1091924413822096
13
algorithm=ase_ga size=13 seed=0 index=3 energy=-39.36921265781049 step=4
Ar -0.311202389987358 0.127919189943103 -1.263290550228481
Ar 0.5734674285473302 0.6105591916942268 0.2632898772910766
Ar -0.9966582847132425 -0.5838293464311153 -0.6775168279920641
Ar -0.3902869572395489 -0.9499919971307835 0.2189562239179282
Ar 0.6235060451822598 -0.4979568964602762 0.1574225381067577
Ar 0.5002771097889996 -1.562814805036239 -0.1049488394905026
Ar 0.08014982080847144 -0.7943343618670961 -0.7826320296075872
Ar 0.6902886509787225 0.1289490607104105 -0.7467610203288757
Ar 0.03302703198509691 1.016440181887191 -0.6465439176121828
Ar -0.08248987692690268 -0.08726535953740952 0.900005355131505
Ar 1.022066587509541 -0.01767509901691301 1.071178178239344
Ar 1.181925491822304 -0.8849813352517525 -0.7122947693258672
Ar -0.2803146281146561 0.07492975575858503 -0.1675713139567488
13
algorithm=ase_ga size=13 seed=0 index=4 energy=-40.24277387500983 step=5
Ar 0.4993682752080904 0.5767551772577845 0.9786772191525922
Ar 0.7832167386558456 0.2599990763363079 -0.802353380338921
Ar 0.9060147358474675 -0.7460696955480736 -0.3245682800939305
Ar -0.2797605186897674 0.5747361697264088 -0.6798556380243996
Ar 0.4477169277866409 1.294820398785418 -1.097719338716647
Ar -0.04429295020957432 -0.4854946158905 -0.8732353050979429
Ar -0.3300285269145083 1.624485996815162 -0.3358617916172874
Ar 1.271664053722096 0.2021771109164753 0.2078971978741638
Ar -0.1210945753188931 -1.071997416206526 0.06407049176920591
Ar -0.4691918865021144 0.777170647110892 0.3972492827714244
Ar 0.543118332206992 1.018640320010365 -0.03077067723744037
Ar -0.840431133497935 -0.1979728674876152 -0.1102219846749571
Ar 0.2108586013183489 -0.02912071563255711 0.113673430543241
13
algorithm=ase_ga size=13 seed=0 index=5 energy=-39.10224308404219 step=6
Ar -1.336016565439114 0.4936196252500075 -0.7996282677754516
Ar 1.179218359575026 -0.1179203573115439 0.2457768201961554
Ar 0.6338297906657778 -0.5323281488797896 -0.6248354984020009
Ar -0.3514651299973962 -1.775182613989782 0.376145077852058
Ar -0.4932089290630619 -0.7666612366273473 0.8065418124540458
Ar -0.309917830176243 0.06376809023061707 -0.8014327514325674
Ar 0.08105978589933834 -0.0190185705413486 0.2340613619894995
Ar -0.3328525475284823 -0.912834265037329 -0.3016735411653503
Ar -1.226727483908822 -0.6195568681687612 -0.8653815943758393
Ar 0.6553365083905016 0.5695774501442775 -0.500538774320576
Ar -1.299884516736707 -1.172471807132895 0.1363398790637825
Ar 0.518468698832784 -1.029647858358473 0.3864497345737906
Ar -1.00409525795105 -0.0938986816121896 0.08372018531958386
13
algorithm=ase_ga size=13 seed=0 index=6 energy=-34.85124079088162 step=7
Ar 1.745089651098852 -0.6471095301379762 0.6505966629110811
Ar -2.149664881977143 -1.842347900640839 0.4474776508253836
Ar 0.6200838576464635 0.4349614226389924 -0.2788818981916779
Ar 0.6721445967331365 -0.421305755453926 0.418571013682756
Ar 0.3403144359753543 0.5995603950177336 0.7788100663826694
Ar 1.673843448309413 0.8235588993476034 -0.4277670046149283
Ar 1.781372608482149 1.132764007808899 -1.483831311037643
Ar 0.9412088431954143 1.371056155883314 0.208202458681613
Ar 1.09845002481358 0.2875865160177127 -1.255404574615504
Ar 2.192805597861466 0.1385170766179585 -1.123053788232174
Ar 0.8211781716656895 1.324006288198586 -0.9175478128752371
Ar 1.405557490260883 0.4061638552970301 0.5454803442476109
Ar 1.473810612408344 -0.2664074727034121 -0.3590285087667051
13
algorithm=ase_ga size=13 seed=0 index=7 energy=-39.24752630067156 step=8
Ar -0.7550836816552939 0.3483027247302315 0.2801023166485825
Ar 1.165199177772769 0.8292994548440611 -0.09875991723250221
Ar 0.3236261200815125 -0.6921831565417661 -0.7874747298938525
Ar 0.2745498220127806 0.1660508322535052 -0.09066612289464675
Ar 0.1211454961956152 -1.653307988861489 -0.2496607492293814
Ar 1.265609860508299 -0.2456448688965627 -0.3786170470543496
Ar 0.9894263112700298 -1.831612472546082 0.475617002604576
Ar 1.665967136659776 -0.9092567336050935 0.424172465440063
Ar 1.179582642067193 -1.345276806564314 -0.5023491997692302
Ar 1.087990993231476 0.0479129083841059 0.6921029181467058
Ar -0.456338755883356 -0.6947228836517364 0.01502463809760561
Ar -0.00431522757165289 -0.1662721629582076 0.9296232142329093
Ar 0.5873541592195036 -0.8294784062554148 0.2901317844811936
13
algorithm=ase_ga size=13 seed=0 index=8 energy=-38.2700754189915 step=9
Ar 0.7701766189916552 0.7084226761747117 0.9434965991954376
Ar 0.2937849147262816 -1.034614558369624 -1.203659451008407
Ar 0.1275845081038361 -0.2608132695800156 -0.4336398060384277
Ar 0.8016988972015674 -0.2859460627416236 0.436960749993561
Ar -0.1560027109369679 0.3420529834387918 0.4468522315478543
Ar 0.2013248619536626 -0.1585690338168186 1.373154217047434
Ar -0.6560875275883846 -0.4179962056307541 -1.195733631176564
Ar 0.5863160009028259 -1.222298966909341 -0.1309373023135929
Ar -0.4909736834659106 -1.21321595144414 -0.4343033222521592
Ar 1.318279975209556 -0.1501469333489742 1.409249238523769
Ar -0.9319996213058936 -0.2342307966439015 -0.1176523087295948
Ar 0.7227586013020388 0.6398910259033976 -0.1738875730500758
Ar -0.1921035355241158 -0.7664750740059112 0.5295546485275202
13
algorithm=ase_ga size=13 seed=0 index=9 energy=-37.5575383039159 step=10
Ar 0.001341242225594399 -1.000285244358145 -1.294637051448609
Ar -0.3025988046634517 1.14655168787534 0.2252856333513589
Ar 0.490479467558776 -0.2464565472752997 -0.6467077936045756
Ar 0.03304882514947421 0.09056529315753829 0.2815006108907364
Ar -0.06780403397308819 -1.713292109462962 -0.4473405928541805
Ar -1.201925381550363 -0.5049420301836207 0.4735371829787421
Ar -0.2760251382268364 -0.5756005325909317 1.085246206991811
Ar -0.8012033754581306 0.4204142171150082 0.9211872261905315
Ar -0.4884903818063309 -0.6814280350228572 -0.3455864477865374
Ar 0.9149240594271124 -1.266673985530136 -0.6909973061607436
Ar -0.599534886064502 -1.437256878763374 0.4758961598060017
Ar 0.3923153299027435 -0.9569636584867947 0.2484861717789962
Ar -0.9277855125530281 0.329750426826676 -0.2078246339255755
13
algorithm=ase_ga size=13 seed=0 index=10 energy=-43.89940495698664 step=11
Ar 0.4065138656160596 -0.05154752733954267 0.8219946530700684
Ar 1.268629842015969 -0.01855644402612266 0.08064361110172025
Ar -0.4262193461960572 -0.6774387027105774 0.3651017906476807
Ar -0.4898651062727429 0.458052525658361 0.3416257431772959
Ar 0.5576141521784346 0.8652613536045992 0.165823218563609
Ar 0.2394241387568816 -0.08300109013412275 -0.2463974349148595
Ar 0.07233921771205898 -0.1144580226853546 -1.314794335857441
Ar -0.789780315251954 -0.1474489016823778 -0.573442653231679
Ar 0.6605860744097684 -0.9719951203940581 0.2038111844108984
Ar -0.07875688443292023 -1.03126613280388 -0.658624118644652
Ar 0.9050678803025919 0.5114322633735301 -0.8579049286698913
Ar -0.1817366326628287 0.8059955261227539 -0.6966061681157406
Ar 0.9687133451422476 -0.624056019572265 -0.8344215712493778
13
algorithm=ase_ga size=13 seed=0 index=11 energy=-39.2897509399457 step=12
Ar 0.0252938066329981 -0.2730487169662183 -1.04668106589712
Ar -0.5066592519667127 -0.3380322853429329 -0.05569388614135749
Ar 0.5994521739806832 -0.4049235226638953 -0.1028067882068487
Ar 0.05761449644127213 0.5799817170027309 -0.3327731961961147
Ar 0.1302012198464654 0.1757186163732738 0.7144728758193453
Ar 1.160828161295893 -0.2820526870953718 0.8418803473215348
Ar 1.850634093952117 0.8715509926865945 -0.4567804166291317
Ar 1.486830118720197 1.025976352740544 -1.496362218490271
Ar 0.9797926042407565 0.2708219577562364 -0.8717527007950671
Ar 2.011069132445447 0.06329827451019168 -1.204234357906439
Ar 0.8402736199504115 1.335361770473129 -0.6230015781172321
Ar 1.014084044425298 0.6086372405510381 0.20450593865826
Ar 1.692224174359786 -0.1956305197560299 -0.1541977817592685
13
algorithm=ase_ga size=13 seed=0 index=12 energy=-38.41809834621316 step=13
Ar 0.7067882685431711 -0.1288713751617643 0.7026492780615929
Ar -0.3201376620484201 0.06707009916572522 0.3200492999418569
Ar 0.4797389334682577 0.8139962666876494 0.1354755988800097
Ar -0.4019422389728481 -0.05025356971093699 -1.575588094096804
Ar -0.4909990269411347 -0.5457814703876732 -0.5817860858820693
Ar -0.2709819959177867 0.561276937427893 -0.6639655948648735
Ar 0.3484554179202521 -0.8038899914597853 -1.278584242247224
Ar 0.5297192694126804 -0.1566283618714917 -0.4010522769844021
Ar -0.09222752171824028 -1.580443231811468 -0.6173034647113326
Ar -0.2122996658418491 -0.5591312837758843 1.221649686275881
Ar 0.9596092825834091 -1.185050481584981 -0.4347295205709437
Ar -0.9438666097377834 -0.8542459640183721 0.3925988110646645
Ar 0.1389247714191187 -0.9587215762881238 0.2551328572484596
13
algorithm=ase_ga size=13 seed=0 index=13 energy=-38.06808974191913 step=14
Ar 0.4172879736049876 0.2686546578890911 0.7908654750553551
Ar -0.2339044397458475 0.7299808427116183 -0.8686534710055435
Ar 0.4691464871696636 1.57845077078613 -0.9878136702784549
Ar -0.3726650678343009 1.633386236895833 -0.2358903035216387
Ar 1.288116458160225 0.1712138183565883 0.04521122670571461
Ar -0.4942550732287561 0.6200911792961091 0.2219691006853378
Ar 0.5310991757178377 1.018151764293944 -0.03335465994528322
Ar -0.3899028570231844 -0.4707239366108851 0.4883907931421687
Ar 0.2658289465960957 -0.01088621746408291 -0.2524749732614384
Ar 0.04308942502470668 -0.2859847010913822 -1.283275527364405
Ar -0.7871153218671736 -0.1778193084970621 -0.5213495027332279
Ar -0.05403198092068697 -1.034029039627133 -0.4441335808402908
Ar 0.9859130868941175 -0.6493691159048359 -0.7424529756862133
13
algorithm=ase_ga size=13 seed=0 index=14 energy=-40.18807132089162 step=15
Ar -0.5429140411624978 0.1442076808513132 -1.013138077128962
Ar -0.003135398289619443 -0.4643206349703421 -0.2785451635648313
Ar 0.5995128597925357 0.09902901938459767 -0.9939274104537592
Ar 0.01554579276200293 0.6489857397714011 -0.1987694312592481
Ar 0.9643018763961543 -0.8805706330334231 -0.5352260874929655
Ar -0.9032650246169384 0.04216896572316794 0.06804010116291449
Ar 0.1129875204501854 -1.550974723663429 -0.181485378886512
Ar 1.171489326592313 -1.73652185389749 0.1446408179701687
Ar 1.665110196981177 -0.7384038901579316 0.3160446478773274
Ar 0.9170469838674508 0.05733353802786919 0.07688130341279928
Ar -0.5308580282182078 -0.9401741063348196 0.546190126854901
Ar 0.001784496032302912 0.03238239951258481 0.7248456118168378
Ar 0.5920472639761493 -0.8869197805392146 0.5605630902020218
13
algorithm=ase_ga size=13 seed=0 index=15 energy=-37.56551551074158 step=16
Ar -1.141159134117876 -0.5507978326354183 -0.6022435689912267
Ar -0.4534268808213572 -0.9066007220469291 0.2004479296369667
Ar -0.09938263337191396 -0.8551188530404986 -0.856415703259881
Ar 0.366262165351432 0.967830887254291 -0.4121929929273446
Ar -0.05799494799824518 -0.04373386325208346 0.7960614946836376
Ar -0.2775314936067849 0.07416435316193246 -0.281859587952386
Ar 0.550602979788911 0.03973876311598275 -1.021527094754329
Ar 0.9427771906735994 -0.867003962237656 -0.510246818411604
Ar 0.247910916945336 -1.678134707464128 -0.1912576611862274
Ar 1.310842612272672 -1.672162794610064 0.1651166082269266
Ar 1.633392969837014 -0.6079028024524963 0.3246578837834256
Ar 0.7764062656055086 0.05751679385409231 0.07057036431929721
Ar 0.5872231232968858 -0.9188747108466739 0.5510776193426784
13
algorithm=ase_ga size=13 seed=0 index=16 energy=-40.9670019222159 step=17
Ar -0.1351808746523124 0.2856786824207233 0.554333486928113
Ar 0.9088604841842808 0.5571679624615924 0.1940222487947022
Ar 0.3391859550976623 -0.2251389480368796 -0.2843040831063416
Ar -0.09703433072301684 0.02469722012226457 -1.254164470280505
Ar -0.7408221075927568 -0.03237988289492692 -0.3343949015789959
Ar 0.9279698926806066 0.3913344169032871 -0.9496571120879993
Ar 0.006557388505121125 0.8038136427758649 -0.4381697603085626
Ar 0.7354758771195309 -0.734397147281078 -1.151589738946944
Ar 0.7019732785910636 -0.4697985095400269 0.7025380162836268
Ar 0.5943915431096291 -1.264556566833383 -0.1297621123421076
Ar -0.2982601836161647 -0.9742297641723053 -0.759560444528143
Ar 0.6806199568575073 0.48251540135333 1.283714411635712
Ar -0.3187425453325213 -0.8110118610433192 0.3614003417184591
13
algorithm=ase_ga size=13 seed=0 index=17 energy=-39.28975089040642 step=18
Ar 0.7439463820446964 0.402855554247515 -1.152657680766645
Ar -0.2272347785120317 0.6816344179597656 -0.6862867872365083
Ar 0.5679409833419775 1.453447132481272 -0.7858756156325709
Ar -0.03243775950609679 1.394131631305191 0.1621308828364668
Ar 0.7348204900057195 0.628748386180348 -0.06324840581828652
Ar -0.2812175487013393 0.3307815266585032 0.3521495896996505
Ar 0.2577780984468367 -0.2843721261960856 -0.425468731268609
Ar -0.8427607036262333 -0.2264593253254079 -0.4335075778254837
Ar 0.6316346271753898 -0.2427348901372022 0.622640635310922
Ar 0.6120249932037669 -1.214291127274103 0.05082142148604418
Ar -0.3146516185172534 -1.210692260658213 -0.603544309805076
Ar 0.4756580586956967 0.8149623685869456 0.9954334046135527
Ar -0.3380732485438226 -0.7642507749016507 0.4148170634821729
13
algorithm=ase_ga size=13 seed=0 index=18 energy=-41.0445832928818 step=19
Ar -1.487955201919852 0.5039352787044429 -0.6064266280305287
Ar -0.2816444274245847 -0.8626681562600316 0.6679037404057584
Ar -0.7539865350255376 -0.2337150704553346 -1.002259204185334
Ar -0.6924728183446224 -1.16858659196175 -0.3745236224152333
Ar -1.000455338854653 -0.1969860316637904 0.1080680070297741
Ar -0.1173490501804844 0.257488005490411 0.6445088036872437
Ar 0.6780035069589174 0.4991890302391884 -0.1255074071257331
Ar 0.01849083015673531 -0.3643218887369225 -0.2433311700727427
Ar 0.2794082750599761 0.1982987130452898 -1.142624351052855
Ar 1.031137041248827 -0.4589810439560505 -0.6100906740392432
Ar -0.4079895726894176 0.6369611866074545 -0.3711684602684522
Ar 0.1246571137278754 -0.9232909237329011 -1.162601706401962
Ar 0.7797748940566759 -0.4214555331478623 0.5222565398295195
13
algorithm=ase_ga size=13 seed=0 index=19 energy=-40.00593296752664 step=20
Ar 0.4791505393902231 0.1654042704217509 0.4743874369014748
Ar -0.3496480552919422 -0.5953842537527942 0.4069947543539238
Ar -0.3891715031140446 0.3364076275555459 -0.2014981043744321
Ar -0.1098181218837292 0.1252377718248434 -1.253297005268093
Ar -0.6910985944342427 -0.6631999975965963 -0.6547782036697891
Ar 0.6677095159076289 0.5840814247835924 -0.5443068070193166
Ar 0.353808118808376 -0.4512660760044515 -0.4467558195799208
Ar 0.02190960876781902 -1.463204113748829 -0.2043983213337575
Ar 1.364185914200275 -0.2310700401448637 -0.09521078267146617
Ar 0.9158022158127413 -1.974700104424453 0.2740073327704949
Ar 1.757021253214819 -1.202490318784857 0.3424741186869973
Ar 1.087205813978523 -1.242108997920887 -0.5379652232356382
Ar 0.7037112165554398 -0.9158759908646844 0.4947464201545737
13
algorithm=ase_ga size=13 seed=0 index=20 energy=-40.18807131404061 step=21
Ar 0.5976493129268708 0.5504619838012103 -0.4640210530535195
Ar 0.2862295038855446 0.140100124496078 0.5132968619402909
Ar 0.9275647553154255 -0.7298754602255528 0.7688080118070394
Ar 1.642724138810303 0.9211745394602993 -0.5248452697344484
Ar 1.044518235547054 0.7382271037761601 -1.461841864117297
Ar 1.449644491819681 -0.1160412329811862 -0.8754255628717192
Ar 1.367527079512842 0.1296064258866815 0.2152108959729961
Ar -0.1291236766528985 -0.8912544517628093 0.3933255574315834
Ar 0.3876150041534046 -0.155804716544978 -1.287528350556551
Ar -0.3333726160764977 -0.07629549047788348 -0.398154325181464
Ar 0.6423629682967689 -0.5478894899197942 -0.2950086169780481
Ar 0.73239887257374 -1.574757971603232 0.07745288351149061
Ar 1.649730143174964 -0.9106115961813641 -0.08061873871708329
13
algorithm=ase_ga size=13 seed=0 index=21 energy=-41.04458336646961 step=22
Ar 0.253185502324823 -0.2460076027943512 -0.2531613396693138
Ar -0.3649507845622691 -0.09070760482734165 -1.138337605819665
Ar 0.6267038007608291 0.4306454957805799 -1.009563882338293
Ar 0.5723109047773326 -0.7181304794743421 -1.171869693380894
Ar 0.6776641966481107 -1.23387259054563 -0.1396607215411038
Ar -0.3399738930026003 -1.08968803952009 -0.6133222713123396
Ar -1.228145202784332 0.5432839642639303 -0.8343236273918174
Ar -0.197074321929284 -0.9031170117104228 0.4951511637978513
Ar -0.8336752901466151 -0.2118080088733948 -0.1176756150203134
Ar -0.1408304399232033 0.2173442474784326 0.6542565107720331
Ar 0.7762776645749857 0.6206148746117656 0.1264501530673046
Ar -0.2412306551936853 0.7213384391278187 -0.3508057695829785
Ar 0.8038520820707575 -0.4057226928452397 0.6634593326550724
13
algorithm=ase_ga size=13 seed=0 index=22 energy=-37.55965600437131 step=23
Ar 0.461003861752622 -0.07293984996169027 0.9959750358559936
Ar 0.1553030180128454 -1.633448426585669 -0.4017115053001909
Ar 1.006636955248714 -0.1039073226894326 0.03868221535030529
Ar 1.121181760392962 -1.903689377081413 0.1155339993213877
Ar 1.629847531660425 -0.9421529395701266 0.41660874706427
Ar 1.088863383573698 -1.024305559923445 -0.5641081924273791
Ar 0.5298064903696404 -1.022870068315411 0.4360841171520422
Ar -0.4495363136372258 -0.5228558208730715 0.4850881332223678
Ar 0.009721157777818335 0.4167970456787112 0.1167964147023153
Ar 0.947907353709022 0.9968610989354761 0.05011087167755163
Ar 0.1115725372244218 -0.5284959856940932 -0.4705359898479117
Ar -0.8564723455799842 -0.001963314522312138 -0.4319533164006208
Ar 0.5693925749320258 0.4057826732450639 -0.8437238135252939
13
algorithm=ase_ga size=13 seed=0 index=23 energy=-40.96700195547909 step=24
Ar -0.1666904141794229 0.2228622811556563 0.6346079289384464
Ar 0.7948009765062098 0.5848920126501691 0.1467326527147437
Ar 0.2450145478105449 -0.2519865415499242 -0.2566259369338508
Ar 0.7487458462061832 -0.4507269507869741 0.6772261353479526
Ar 0.6125957275554634 -1.261687371700571 -0.1350144137861632
Ar 0.7116616687890976 0.5023137436207772 1.256413021237115
Ar -0.2704395717569962 -0.8882267562750247 0.4662598795896057
Ar -0.3296415810891441 -0.0546456952380236 -1.164461050970478
Ar 0.6868714673251164 0.4081432451368567 -0.9903811259683731
Ar 0.5758548432335557 -0.7328023158885543 -1.166534992392008
Ar -0.374448442289552 -1.061968634989456 -0.6484568456395264
Ar -0.8460217833511772 -0.1598505532137028 -0.1714985913689347
Ar -0.1980114042715783 0.7401895000740383 -0.3678991883108482
13
algorithm=ase_ga size=13 seed=0 index=24 energy=-40.0059329443873 step=25
Ar -0.6148776995258449 0.2029846147114972 -0.1886468813062178
Ar -0.2160452724065857 0.1255277035049588 -1.220082521492691
Ar -0.6835850106584476 -0.7986761655041043 -0.7251074003532828
Ar 0.3999532718293466 0.6658098762001647 -0.4160875702359996
Ar 0.2816218977763856 -0.4139835859138757 -0.4082555285834901
Ar 1.156810943944774 -1.047312584289358 -0.4758383603466282
Ar 0.1294209191155221 -1.484877691666702 -0.2567965282107147
Ar 1.062321727489455 -1.857116946857137 0.2729531005946829
Ar 1.733204596659115 -0.9504846469366481 0.4642494720697698
Ar 1.199845799914139 -0.03822211507594241 0.04845237385500868
Ar -0.4485867508885981 -0.748126915240772 0.3661243377597953
Ar 0.2123428342347644 0.1451270922021567 0.5546040376356602
Ar 0.6358157314598577 -0.8747752995446229 0.5335105247144611
13
algorithm=ase_ga size=13 seed=0 index=25 energy=-39.01741758551134 step=26
Ar 0.2696630877240168 0.004484961714556572 -0.1272674003353799
Ar 0.8975295739123081 -0.6718833807067401 0.4336783140261081
Ar -0.008866562477928863 -1.047199108592741 -0.1606642251712265
Ar -0.1367216091380801 -0.3904490544761591 -1.068320932206508
Ar 0.6693827979493016 0.4002539081375499 -1.062438690873214
Ar 0.8995494559092386 -0.6612871212782809 -0.7139243245564167
Ar 0.6335295427673107 0.4137017060255809 0.8047764237559097
Ar -0.3732287080647214 0.6495850447977637 -0.7335252531542908
Ar 0.2759920490955632 1.451065413363262 -1.135948834924517
Ar -0.3826701843968152 1.640141550560842 -0.2365205175477556
Ar -0.3899916994002747 0.7050675874940374 0.3855129141433578
Ar 0.5503928035949274 1.048240678311171 -0.1379524799205833
Ar -0.794328226835729 -0.2167919731596179 -0.1616993062851192
13
algorithm=ase_ga size=13 seed=0 index=26 energy=-40.24277376582506 step=27
Ar 0.4729861476175162 0.1207213750508084 0.8658168921294804
Ar -0.4137628207256486 -0.5115144984172231 0.4852069684276823
Ar 1.322192517592064 -0.02078144311227526 0.1074186907941625
Ar 0.8219924340519119 -1.744342528703819 -0.2429713087565408
Ar 1.685014108849586 -1.089950848680523 0.1048645959613414
Ar 0.6452455463200624 -0.8678077746041312 0.4083177008913427
Ar 0.2745931037668259 -0.01952632130344549 -0.2016604752361456
Ar 0.1337851445333399 -0.3465866112025833 -1.26022321278621
Ar -0.7399685792649988 -0.1857454713394372 -0.5654631959673778
Ar -0.05735122074286567 -1.063352705893718 -0.4263667353009729
Ar 0.9855152235092186 0.3406116931324165 -0.9424256601418016
Ar -0.1055416215699806 0.6889405935557762 -0.9458297057635213
Ar 0.980793849510599 -0.737584273413469 -0.6714764847390851
13
algorithm=ase_ga size=13 seed=0 index=27 energy=-39.19910618820135 step=28
Ar 0.8904826466196789 -0.9020521764446728 -0.3703119352517054
Ar 0.1270089256130031 -1.737844039044713 -0.2986830104221864
Ar 0.9308003640900987 -1.615247935570916 0.4809622034297862
Ar 1.083837474692639 -0.5083303016578148 0.6496598164376693
Ar 0.384457673480233 0.04237860446930392 -0.03111883511150578
Ar 0.0747598151577519 -0.9138339968526307 0.4321243051376416
Ar -1.372826004180946 0.5518648124179079 -0.3353014254109956
Ar -0.381481542814577 0.3302266967474401 -0.7974110756487806
Ar -0.1474867806138541 -0.7315362364773234 -0.6570317511299888
Ar -1.205067496596677 -0.4618743430174093 -0.7772507348780135
Ar 0.6270965115860562 -0.08537534264695365 -1.104372721590121
Ar -0.8782803185387845 -1.259657990378237 -0.03376340615460972
Ar -0.6873810857754576 -0.1698258769294869 0.1609491356421138
13
algorithm=ase_ga size=13 seed=0 index=28 energy=-39.10224307524862 step=29
Ar 0.2841140161852694 0.4524377413545259 0.1491163656918645
Ar 0.9525188047119939 -0.4180483603776701 0.1136833695271945
Ar 1.365402255734172 0.5878584004824071 -0.07117942741817239
Ar 1.532168158447179 0.7443348079782379 -1.152908990973453
Ar 1.709924757412115 -0.2884199408425334 -0.6897104845433818
Ar 0.5982161065390393 1.178329724524709 -0.6433447078417779
Ar -0.3239243396406895 0.5098345144113036 -0.7748295990229001
Ar -0.05608242558549878 -0.5149565772051464 -0.3394022649875081
Ar 0.6943029181779705 0.1080012577780357 -0.8422729021408117
Ar 0.8260468125027109 -0.9713609762987829 -0.8785862444639729
Ar -0.7841558319719824 0.1466770907757564 0.1800301041203391
Ar 0.4843364056997277 -1.415768976554769 0.07841143373784346
Ar 1.595945827160658 -1.276047565943317 -0.1426731980814079
13
algorithm=ase_ga size=13 seed=0 index=29 energy=-43.89940495082818 step=30
Ar 1.046393242773656 -0.1943077599662439 0.2126747340937187
Ar 0.2596562565796206 0.6268523870013121 0.1867921192629002
Ar 0.1158818308526726 -0.3149216722084574 -0.325814684285946
Ar 0.1753876543943425 -0.2919555188155006 -1.405768013036231
Ar 0.8393307422207912 0.3646375626322125 -0.7561572423796571
Ar -0.2786586304795679 0.5665046226512035 -0.813460470906863
Ar 0.9943143483961502 -0.7621651907017656 -0.7715725101554549
Ar -0.0278839467140518 -1.25669934441398 -0.8384136909501397
Ar 0.5104121439306986 -1.196341412869963 0.161850751078125
Ar 0.05637027506474315 -0.3378827777714452 0.7541424287701063
Ar -0.7625521839465346 0.1323215444825922 0.1199477949559151
Ar -0.8146283523218126 -0.435540246732238 -0.864312614178297
Ar -0.6075761517609052 -0.9944781190507104 0.1045217202914557
13
algorithm=ase_ga size=13 seed=0 index=30 energy=-41.04458333778238 step=31
Ar 0.5609602521912593 0.9432473243539303 0.1135104662996028
Ar 0.3626870368313788 0.2313519468237143 0.9687741655121156
Ar 0.6624986755960119 -0.759849274636797 -0.5540046198374627
Ar 1.126545936209555 -0.03648242583709506 0.1778686514382686
Ar 0.4248513780089399 -0.8455391300259072 0.5457257849259716
Ar -0.5103732762024147 0.7769187941708408 0.4331658497833067
Ar 0.05602396604226378 -0.01404651622115419 -0.03853286959274214
Ar -0.1936169052805574 -0.2249020509898793 -1.079195595804357
Ar 0.7492616758921224 0.3366647244619365 -0.8113244376584979
Ar 0.7599551952965435 -0.4344303236253046 -1.614245100148335
Ar -0.4055131396376346 -0.9672985943098253 -0.2571636814421279
Ar -0.9865426396347891 0.03641278106521571 -0.3201127493595498
Ar -0.2513975192734554 0.8245737185598739 -0.6674689939871513
13
algorithm=ase_ga size=13 seed=0 index=31 energy=-41.0445833300658 step=32
Ar 1.288431896226991 0.860121013571047 0.01714359712916558
Ar 0.2999422845695328 -0.6116587592002137 -0.09195297317462588
Ar 1.111542877480224 -0.06595849664374009 -0.5749303005921224
Ar 0.5732212785301294 -1.060919363020656 0.8661606707173866
Ar 1.31154728366106 -1.011676490054638 0.008030393753870352
Ar 0.7445855633397731 -1.056691463428474 -0.9711635710557208
Ar 1.008679282752867 -0.07646683745953195 0.5499764334919292
Ar 0.07721605715474458 -0.1074802712575827 -1.022390231714963
Ar 0.2467878106456705 0.4776484126970583 -0.07335688783038094
Ar -0.6811136870316943 -0.1604645283093376 -0.1442631932175564
Ar 0.4060895750675223 -1.687132054261581 -0.05984418738005046
Ar -0.4758759584459625 -1.132754431153398 0.4516373087479658
Ar -0.08037130711295676 -0.1367324505443824 0.8153273859264423
13
algorithm=ase_ga size=13 seed=0 index=32 energy=-39.19910618256202 step=33
Ar -0.9980591488583742 0.6433021610790108 -0.1695117656825577
Ar -0.1425589183670515 0.2767842885408394 -0.7853261710011537
Ar -0.06126145472414259 -0.8112097426883019 -0.6782979495446022
Ar -1.067678037706972 -0.3752012635565641 -0.6266055529782164
Ar 0.7238818724830507 -0.2870270422536789 -1.249621133659896
Ar -0.7565136645181132 -1.229286925495733 0.05876842967146446
Ar -0.365392478322863 -0.1875211342507788 0.2130981689496599
Ar 0.1035079532167483 -1.85521487541497 -0.3631406808856277
Ar 0.6812835815298898 -0.143876979955028 -0.1520127768502946
Ar 1.031820192490075 -1.876961404935822 0.2746125406456682
Ar 1.38458841941517 -0.8118064414944099 0.4093351762781945
Ar 0.9687405126547201 -1.149566165401914 -0.5631513613283715
Ar 0.3020504763032357 -1.048042320345286 0.3613246415865418
13
algorithm=ase_ga size=13 seed=0 index=33 energy=-39.64768566100724 step=34
Ar 0.2353572249693887 -1.744644707479572 -0.3451791220558578
Ar 0.9533835944820672 -0.007159162499909655 0.09601536193938376
Ar 0.0703944460274608 0.2017227870558875 0.756115617343345
Ar 0.1592270016418731 -0.7817037843452688 0.2158246899050347
Ar -1.006642909897643 0.6670791687675086 -0.2175116094221561
Ar -0.7536742905589457 -1.247878785343326 -0.2203032548467797
Ar -0.8316293815742629 -0.2896718497561401 0.3347399654037637
Ar -0.2229976318757322 0.1661887564372495 -1.425558064174317
Ar -0.9795779234532335 -0.3076122442382038 -0.7654427947640163
Ar 0.009614660670365611 -0.7998273017644225 -0.896720363623837
Ar 0.8038646480485931 -0.02526142013186219 -1.015787327766292
Ar -0.05028110166753549 0.1486775363612579 -0.3376462874292803
Ar 1.022068464530031 -0.9649943920481422 -0.4637193454859169
13
algorithm=ase_ga size=13 seed=0 index=34 energy=-40.00593299870091 step=35
Ar 0.3018429946115695 0.006801502105883659 0.7120459428341996
Ar 1.188990894399581 0.01609173608982401 0.01696280688469352
Ar -0.4288353838769894 -0.7588038234831216 0.3535445894155368
Ar 0.170058652573491 -0.2169293209169717 -0.372893013406271
Ar 0.6921591225412436 -0.9441281464255952 0.2837676816668868