13
algorithm=ase_bh size=13 seed=1 index=0 energy=-38.21773076910109 step=1
Ar -0.2533682890174133 0.1179115205682875 -1.306635301860028
Ar -0.4996123484416822 -0.8608885302460517 -0.8206379786855662
Ar -0.6431383992030927 0.09015279669297886 -0.2743205835514385
Ar -0.2006658922548666 -0.8082120784160008 0.2535393080265795
Ar -0.8517886419923237 0.9731481824556655 -0.9097254809372075
Ar 0.4019399245594849 -0.2794077248442154 -0.5021390217193378
Ar -1.283632563395177 -0.7689567293782968 -0.0179942836262384
Ar 0.1651504886615291 0.2241818246226675 0.4688042780405186
Ar 0.8277415013521601 0.3893277999002603 -1.284476124798398
Ar -0.9642062257688709 -1.188901624968275 0.967518502764937
Ar -0.8674149007907038 -0.08957237760325118 0.7893427378786708
Ar 0.1687569268682069 0.806808537666955 -0.4879706866972683
Ar 0.0568468938377017 1.163182973553485 -1.538168038345471
13
algorithm=ase_bh size=13 seed=1 index=1 energy=-38.21773075237338 step=2
Ar -0.2544198249977708 0.1168074977645689 -1.306838977120731
Ar -0.5089565711670558 -0.8592294012249075 -0.81957955698711
Ar -0.6418562009497233 0.09350534974386725 -0.2735225990843447
Ar -0.2067848974025567 -0.8087813738597688 0.2537900077170223
Ar -0.8435863218382894 0.9780299926769762 -0.9090317426077674
Ar 0.3990183032368952 -0.2863194659111137 -0.5037376153757611
Ar -1.290021952519362 -0.7591594401995476 -0.01502641332326136
Ar 0.1695838331635703 0.220151657676188 0.4674575804025883
Ar 0.8293118981886662 0.3777901715625221 -1.287556412350283
Ar -0.972173427340624 -1.181635320667137 0.9699157493227017
Ar -0.865159364416805 -0.08339078800028525 0.7908324950871224
Ar 0.1763723910862653 0.8021259882492741 -0.4897055193843666
Ar 0.06528060937173816 1.158879702193568 -1.539859669806048
13
algorithm=ase_bh size=13 seed=1 index=2 energy=-38.21773078492274 step=3
Ar -0.2351050420369256 0.1165024349873782 -1.30569863303756
Ar -0.5258657082956656 -0.8523073998839605 -0.8243031229274707
Ar -0.6398075256413907 0.1032266602832231 -0.2788443394888676
Ar -0.2398772061688424 -0.8120270079511805 0.2539276889559319
Ar -0.805262068707903 0.9940773102059894 -0.9159963305161083
Ar 0.3931472024626639 -0.3065307487543643 -0.4927834242068333
Ar -1.316670937560801 -0.7304994623543803 -0.03236248586919375
Ar 0.1628055718637424 0.2052215338574914 0.4754339076230554
Ar 0.8553146750090467 0.3456947185367469 -1.268399662935902
Ar -1.02738125192506 -1.16322653877506 0.9569167645469556
Ar -0.8854827112115549 -0.06837531445043825 0.7814333003166438
Ar 0.2021674506628584 0.7879276908645669 -0.4804931726327845
Ar 0.1186260259647779 1.149090693438194 -1.531693163338107
13
algorithm=ase_bh size=13 seed=1 index=3 energy=-36.09635498401988 step=4
Ar -0.2338413019715448 0.4231253706197719 -1.427285514556262
Ar -0.4794017271495876 -1.048676669737339 -0.3671372223556545
Ar -0.7318837691563098 0.02973889596662328 -0.5249235411448204
Ar -0.2976432043839859 -1.211236819021898 0.7214546720935706
Ar -0.7593157862013663 1.122646722672557 -0.7301633061449683
Ar 0.2672527069326693 -0.3748739569015558 -0.838557124551132
Ar -1.526921469467614 -0.7416228323452297 -0.5895834897879964
Ar 0.02545263768190968 -0.2587447757266874 0.2405771321684728
Ar 0.8647493208884112 0.481865457481063 -1.240314570444115
Ar -0.4106220799929486 -0.2306299725220543 1.261507529041519
Ar -1.070447062473386 -0.4735247260581971 0.3972876304387951
Ar 0.1810634477842496 0.642956017283737 -0.3793306040689898
Ar 0.2281667619244513 1.407751858293408 -1.186394264198652
13
algorithm=ase_bh size=13 seed=1 index=4 energy=-37.1330963532334 step=5
Ar -0.3261341359665413 0.2328801243177102 -1.393482061416773
Ar -0.7513505174422959 -0.740550951192616 -1.047012153489673
Ar -0.7394415319724807 0.1381390470784336 -0.3690453300922915
Ar -0.1804000863691448 -0.767108156751818 1.096437710707656
Ar -0.7676813774403479 1.122646306968157 -0.8852543614911647
Ar 0.230552402626373 -0.3839984799208013 -0.6541239638693208
Ar -0.4925219652977638 -0.8666602849999794 0.0320298320365897
Ar 0.09675909156138605 0.03043108176935097 0.3665671735174525
Ar 0.785205837412138 0.2943845873862899 -1.344054238764413
Ar -1.202304262411867 -1.156986954206431 0.8364288105047909
Ar -0.9642994481923013 -0.07714714821927963 0.6901949918356352
Ar 0.1960310638287813 0.7186579235080574 -0.4997572719390018
Ar 0.1721934040790112 1.224087474267133 -1.491791811049727
13
algorithm=ase_bh size=13 seed=1 index=5 energy=-38.21773071495686 step=6
Ar -0.2828946083408854 0.1155593865905723 -1.308090013903997
Ar -0.4583656812957612 -0.8737279644885377 -0.812677477195762
Ar -0.6471028289417603 0.06979128431535941 -0.267100483509104
Ar -0.1391727781619445 -0.7972251543757011 0.2542302996296155
Ar -0.9231918719194946 0.9350299896692823 -0.9012067016228753
Ar 0.4131318560551646 -0.2369519354059131 -0.5170494626713251
Ar -1.228321921165846 -0.8251757874166071 0.007208954454024146
Ar 0.1680030630359343 0.2565900232713081 0.4569619601118982
Ar 0.779947527248418 0.4521905183954948 -1.31145855644844
Ar -0.8619656101144636 -1.219576792836855 0.9869572828722609
Ar -0.8361758570717501 -0.1174051073129437 0.8020955822821163
Ar 0.1147470344579818 0.8332047492397545 -0.5019614502030079
Ar -0.04202984937064586 1.176471360358993 -1.550772607305645
13
algorithm=ase_bh size=13 seed=1 index=6 energy=-38.25241321907475 step=7
Ar -0.1641689643587298 0.09445450318780851 -1.318881656785034
Ar -0.2105197733166871 -0.9318728767329043 -0.8772353918294644
Ar -0.7230313383101757 -0.08548568926417877 -0.3831631316299904
Ar -0.1520028735984487 -0.8445373109495278 0.2340040646004689
Ar -1.048314217867593 0.7263308751321719 -1.064188353159246
Ar 0.4073245696047048 -0.1328168931332475 -0.392927356054674
Ar -1.123623650840508 -1.104582182466732 -0.2359193291404264
Ar -0.1470456399223647 0.2478357990536136 0.4981307045108929
Ar 0.7679206861103491 0.6600092340631497 -1.0879680020099
Ar -0.2111866814834379 -0.5273184252897861 1.298248193303298
Ar -1.085465837911353 -0.3672170067988133 0.6192621198436494
Ar -0.1254739466716315 0.8416165789318846 -0.4473686364890674
Ar -0.1278038570191779 1.192357964270766 -1.504855898670747
13
algorithm=ase_bh size=13 seed=1 index=7 energy=-36.02169492265453 step=8
Ar -0.08795202216749107 0.2151511006207642 -1.000215100981985
Ar -0.4877704205053843 -0.8227433082160799 -1.031494613610203
Ar -0.933369272091833 -0.06925444632308222 -0.3414551332896548
Ar 0.08444082066554659 -1.141280593652947 0.7238375748611456
Ar -0.8428142775730167 0.9810714301350597 -0.6903020233650374
Ar 0.1228429822685148 -0.4744127506850017 -0.1655659450525214
Ar -0.7771032136431786 -1.108173201027824 0.01121877156581938
Ar -0.1168672272793794 0.5836098063912138 0.05992075565350731
Ar 0.7212888086616989 0.6944243681592576 -1.586690696823969
Ar -0.9699814338329696 -1.171099397744455 1.107076396129911
Ar -0.5558918849342221 -0.2257514834559992 0.6867860973956463
Ar 0.2405285830710769 1.256444951422558 -0.7492156462953422
Ar -0.3407429682244151 1.050788094380739 -1.686763109697555
13
algorithm=ase_bh size=13 seed=1 index=8 energy=-37.60108054296144 step=9
Ar 0.220483447085132 0.5228717565386342 -1.419823687765981
Ar -0.7543630654157301 -1.062992763279102 -0.9200058442113569
Ar -0.7911269770682184 -0.08465350617480945 -0.3785135581914565
Ar -0.1632660944071304 -0.6285921828046553 1.103365879913301
Ar -0.7714320241487425 0.8514863603712215 -0.9773278519268261
Ar 0.1714517306595878 -0.4063836197103189 -0.7948928578104838
Ar -0.2710903032952096 -0.9762315748377376 0.05914645266698654
Ar 0.4857632187045795 -0.2184468266594126 0.2754897689300738
Ar 0.1146301649833678 1.53129421573907 -0.9470095196709057
Ar -1.15531938213214 -0.5508124169767175 0.564802550433867
Ar -0.447566206268887 0.3096031764660244 0.5897579448224056
Ar 0.08801450039880689 0.6064003917517844 -0.3277718261684276
Ar -0.6695705346804658 -0.1247684404197774 -1.490080124531433
13
algorithm=ase_bh size=13 seed=1 index=9 energy=-39.19910618778729 step=10
Ar 0.5760558365582799 0.0791991979074203 -1.139233222913128
Ar 0.116181131056987 -0.9183126541916534 -0.8184187646554888
Ar -0.8911423334861051 0.4184833484387978 -0.1197825007806251
Ar 0.09342326359588732 -1.058879426648008 0.3110671220815255
Ar -1.02378128839947 0.953935507925314 -1.095272450881986
Ar 0.1316504642432939 -0.05816134268205343 -0.1392054225887503
Ar -0.8058787437945343 -0.6829613358989586 -0.2213401068957147
Ar -0.06293561707445819 0.8246955273952274 0.4935018791111802
Ar -0.1103120761569801 0.750289071435317 -1.728714606054288
Ar -0.924927866148583 -1.222623312091042 0.7438160515043124
Ar -0.5077091137016836 -0.1875623550781247 0.7418581761220737
Ar -0.01602654384118195 0.9030699217095868 -0.6320404898166055
Ar -0.5179886384365011 -0.03239757821761387 -1.059098337742742
13
algorithm=ase_bh size=13 seed=1 index=10 energy=-37.72910153447856 step=11
Ar -0.3908050789587704 -0.08162755093470239 -1.090101446498548
Ar -0.03432653508516535 -1.137442552517871 -0.8666893415092031
Ar -0.6960155580799805 0.3810532473136694 -0.1300301733267676
Ar -0.02502516705440841 -1.244017198112804 0.2752028642825983
Ar -1.148985710260063 0.7394055560537564 -1.066146913243984
Ar 0.2397492074326436 -0.295406466684245 -0.2144248744111722
Ar -0.8279477575399251 -0.6858865803070401 -0.2443403832805422
Ar 0.2697692849211777 0.7052629074400252 0.2533743728170869
Ar 0.5013454141155749 0.5530540022672268 -0.8407166505641306
Ar -1.020477070691592 -1.09874098737442 0.7684755645181929
Ar -0.327454578669799 -0.2284839252501228 0.7087247748820595
Ar -0.2798282167948775 1.281874296917412 -0.5850866290420695
Ar -0.203389758919863 0.8797298211933199 -1.631103838133756
13
algorithm=ase_bh size=13 seed=1 index=11 energy=-39.08065428890465 step=12
Ar -0.3994739837956444 0.1657310796771128 -1.620847073229757
Ar 0.04852649017865088 -0.7337766718244618 -1.084791410361547
Ar -0.8037815868252542 -0.193334138917371 -0.6506912288589285
Ar -0.2884544693322668 -1.248784200016323 0.7283980424954201
Ar -0.7656755836174163 0.8856599497945749 -0.8320410228055044
Ar 0.06998560727118372 -0.4921301958472218 0.006769983977195264
Ar -0.647283429917486 -1.249656816042328 -0.3452666077264053
Ar -0.4512774714354946 0.480229682038635 0.165171809375656
Ar 0.1311446369945858 1.147568306193141 -1.431282010316457
Ar -0.153206333577902 -0.1643359263400719 1.038155361885958
Ar -1.003027062983243 -0.4699412994597222 0.3896702206496555
Ar 0.1088485061172277 1.332389966883023 -0.3107418002856274
Ar 0.2102831553380064 0.3091548338652247 -0.7153669383099011
13
algorithm=ase_bh size=13 seed=1 index=12 energy=-37.14935516136416 step=13
Ar -0.4174975429495739 0.8129084750180702 -1.948317842490348
Ar -0.3154900804629458 -0.8785658097041019 -0.9185186682306913
Ar -0.6059219392538615 0.003469861271677245 -0.3215910288402535
Ar -0.34922516363898 -0.7730184212993857 1.292463956569571
Ar -0.6609797050865455 0.9568702722052439 -0.8697799026820123
Ar 0.4695973750336402 -0.3592238205138206 -0.3040387416497474
Ar -1.28149060519557 -0.8702592282013559 -0.3339372997131
Ar -0.0236839037629598 0.0498685232219865 0.612496539876746
Ar 0.05133664476856865 0.1411489786133102 -1.197872319149336
Ar -1.100349842892945 -0.2903089820688657 0.6188291196810783
Ar -0.3094136782751925 -0.9564525786417419 0.1962744012261136
Ar 0.2351900742552669 0.7239713505033103 -0.245634751752037
Ar 0.3645368418760503 1.208365949599877 -1.243236136356223
13
algorithm=ase_bh size=13 seed=1 index=13 energy=-38.29225192135454 step=14
Ar -0.1553089229600802 0.07014511634972329 -1.631316187318465
Ar 0.4514516992682816 -0.6864599275362713 -1.04886131567411
Ar -1.505437131595326 0.004568562901100567 -0.3026222242597048
Ar -0.08975490612540625 -1.338014876018806 0.7622944249760345
Ar -0.8019065229261496 0.6314781752074777 -0.9074626892995736
Ar 0.1994776345768083 -0.5453644042448805 0.03931530183335075
Ar -0.5791067695546525 -0.4325536062566573 -0.7354321944866197
Ar -0.528234830993311 0.3055140649493593 0.1253250800328733
Ar 0.07462190254028987 1.139372430101984 -1.366114597808406
Ar -0.2163207940642025 -0.2542925490694884 1.032014098108418
Ar -0.892205169136038 -0.7341684089586534 0.2799441877370948
Ar -0.1629365671204048 1.283278743435577 -0.2721783902109113
Ar 0.2622688525051364 0.3252712491437402 -0.6377681671402164
13
algorithm=ase_bh size=13 seed=1 index=14 energy=-38.13062016865661 step=15
Ar 0.6306651099033977 0.7415834954461753 -1.59619412461852
Ar -0.5464705743566014 -0.8364799926997986 -1.321406524188268
Ar -1.186514970402834 -0.1576252762368378 -0.7204938644481342
Ar -0.09076324538885876 -0.9382093840973874 0.5167658091334753
Ar -0.5762868773041626 0.6425610505469107 -0.2504351554501272
Ar -0.1145811011572603 -0.3708547243103382 -0.4232729935523124
Ar -0.8808326426769801 -1.142834673886581 -0.2760525011036782
Ar 0.1200645526153002 0.1832425628093877 0.4942916698530776
Ar -0.3260474354073993 0.274618342670837 -1.280686994105083
Ar -0.4324711733931008 -0.2738464021581621 1.34922248334717
Ar -0.9214100599257719 -0.2185720337312845 0.3518310205965019
Ar -0.1158119963052085 1.331366313507452 -0.995576426621042
Ar 0.4970688882144276 0.533825292143832 -0.5108550723533034
13
algorithm=ase_bh size=13 seed=1 index=15 energy=-37.75015945493826 step=16
Ar 0.623036705762684 0.9271939543074148 -1.52156934558215
Ar -0.3614959582891303 -1.030695448677974 -1.210686351829613
Ar -0.7429113563157561 -0.06547850188203615 -0.7639650735538772
Ar -0.2725557125270516 -0.8170795301048007 0.672864761220094
Ar -0.7046186410276378 0.8618566557601722 -0.1613200743205628
Ar 0.1358121728619237 -0.5323305739423909 -0.329406295084968
Ar -0.8657214450224466 -1.048080540154898 -0.2330858672618149
Ar -0.01393452096289693 0.2409847011930747 0.470658411498361
Ar 0.1589069510087502 -0.08295591460439546 -1.409221152227857
Ar -0.6726907061994911 -0.003545110924817324 1.334046060968462
Ar -1.049981824682289 -0.09732840511101605 0.2927491557436368
Ar 0.2884662487581331 0.5495487838015805 -0.5286828566917069
Ar -0.4657034389498453 0.8666845003442912 -1.275244046388246
13
algorithm=ase_bh size=13 seed=1 index=16 energy=-35.01853964496151 step=17
Ar 0.6826002075268726 0.7723053281161265 -1.678328101403041
Ar -0.352053327921377 -1.245167827710314 -0.8584187340961918
Ar -0.6542028597570423 -0.1729605440206034 -0.8321342706375955
Ar -0.7269593997023859 -1.280758737871891 1.074603195996453
Ar -0.8145611898386581 0.9120702536793783 -0.6412207234937408
Ar 0.25927454170352 -0.517685955875108 -0.2805902709248959
Ar -0.7651854725751589 -0.7946580784268538 0.07568031664243972
Ar -0.4139087875138654 0.2638378662506622 0.1685190705486238
Ar 0.2289216629532918 0.5028086641595763 -0.7009684909887527
Ar 0.04600718932877215 -0.5215299554423304 0.8081110673324415
Ar -1.014988320045357 -0.1983416353629711 0.9829839406076375
Ar -0.007538646798840702 1.49098940825987 -1.15559747799642
Ar -0.4107971229448217 0.5578657842486652 -1.625502195097193
13
algorithm=ase_bh size=13 seed=1 index=17 energy=-38.0824917265965 step=18
Ar 0.5586764113716807 0.9290996108810108 -1.740663503422746
Ar -0.6796996459423927 -0.316505277945617 -1.076170167541065
Ar -1.117999796045481 -0.3663161583903526 -0.04769038889448129
Ar -0.5511432142477195 -1.09978252057975 0.5685880505495965
Ar -0.4768291333415814 0.4753467301208563 -0.3194004015829996
Ar -0.008422485558995753 -0.5513502245089061 -0.2214416696352578
Ar -0.7629473469393718 -1.300181586020883 -0.5261516765310884
Ar 0.5538129306785656 0.3675094031436988 0.06052459908128295
Ar -0.4865614893736203 0.7477840303254808 -1.388317697236734
Ar -1.290669847615048 -0.4111795971688277 1.049603079113228
Ar -0.326071980122929 0.004383787220873923 0.673807244863573
Ar 0.2943786238392755 1.176141319519593 -0.6825747041199873
Ar 0.3500854477125626 0.1138250534070267 -1.012975438153559
13
algorithm=ase_bh size=13 seed=1 index=18 energy=-36.04994525151071 step=19
Ar 0.8325165406011833 1.30101970289922 -1.285785574485776
Ar -0.7136039406212201 -1.320405230808371 -1.015395258012904
Ar -1.273390287164632 -0.4322595956300481 -0.6328755539379409
Ar 0.07839997700765172 -0.697898093248387 0.555303732172195
Ar -0.6468384464636716 0.489868165746926 -0.6116558686748746
Ar -0.1661515712307594 -0.502618415352494 -0.5043116260116127
Ar -0.8294333935421077 -1.170574336502121 0.08787224617419631
Ar 0.1852034580238408 0.3368275729838305 0.1408989516614195
Ar -0.2444532234549417 1.053984841543466 -1.479899170679527
Ar -0.8612319238729284 -0.8201333025866917 1.148178742070292
Ar -0.825028490683965 -0.07831887785806675 0.320356455080218
Ar 0.1082038344591332 1.284121624177644 -0.4369563335108774
Ar 0.4124159413573641 0.3251605146393001 -0.9485934153550515
13
algorithm=ase_bh size=13 seed=1 index=19 energy=-37.42164379605973 step=20
Ar 0.5585283681034873 0.6153043300578084 -1.167601797366277
Ar -0.2575859584544206 -0.8980025000804206 -1.105512327634454
Ar -0.9363286959142555 -0.4302093081181012 -0.3725807326617452
Ar -0.0596198245542925 -0.9707695739324712 0.1003300669778302
Ar -0.800573190685005 0.6488357839289559 -0.2756944259506577
Ar 0.0994889316821245 -0.0811969198678066 -0.4870649702495997
Ar -0.8685698730683036 -1.536842496351209 -0.4179103783317067
Ar -0.3621165543771261 0.02776674796365941 0.5101045470973117
Ar -0.2715802894533247 1.294640836797222 -0.9707285569343794
Ar -1.469842711970555 0.1073764546922433 0.4383521035571949
Ar 0.7249759315256109 -0.1110795892622377 0.4001637416498221
Ar 0.2615814503544325 0.8800058207285979 -0.03781953666647558
Ar -0.5617491087734249 0.2229449834479654 -1.276900406997104
13
algorithm=ase_bh size=13 seed=1 index=20 energy=-39.04365618835048 step=21
Ar -0.01278521689615605 1.185052647693834 -1.33282049053739
Ar -0.7843104994380375 -0.9326254352800744 -1.197974859319133
Ar -1.197249789277479 -0.08998810661827653 -0.6119438145418481
Ar 0.07566440538272901 -0.7896897672575681 0.501565372348004
Ar -0.4222210956971867 0.6761980348348914 -0.4440385356985226
Ar -0.1187399639863628 -0.4023106501791189 -0.5045874497498901
Ar -0.900810268142943 -1.021243773343473 -0.06222638579345081
Ar 0.3826540758355111 0.2706815641854903 0.2075615617401743
Ar 0.5643072398944464 0.3388107609721429 -0.9105205573986026
Ar -0.8995690927118021 -0.8686352325340472 1.043298876329757
Ar -0.6949586867934048 -0.002421901128355379 0.376407531881088
Ar 0.4976337199377577 1.270732908367974 -0.3149213003993496
Ar -0.4330063536921249 0.1342135202907883 -1.412662622371072
13
algorithm=ase_bh size=13 seed=1 index=21 energy=-37.74761799245766 step=22
Ar -0.1576359973321851 0.8183290406583147 -1.539316585584845
Ar 0.2576203110153809 -1.063707125625182 -1.163346677365536
Ar -1.145168377780324 -0.1631709574832735 -0.2517648576877665
Ar -1.14904647782759 -0.8719764910322279 0.5934284870199332
Ar -0.1697330252142695 0.3672892996994941 -0.03379344282198132
Ar -0.3194903513664389 -0.1387803146098115 -0.9895063719182252
Ar -0.4469956256508384 -1.005221762985416 -0.2848917886032141
Ar 0.5185859751049672 -0.4763134877656948 -0.2607954132659664
Ar 0.6184040039764204 0.4422630965365655 -0.8450589055080819
Ar -0.9442821207606187 0.2340669458944761 0.7551298762746222
Ar -0.1114264855887802 -0.4978589620356782 0.6482501956196539
Ar 0.02695337867267606 1.333102407156527 -0.554105111133835
Ar -0.9211767328334536 0.7907528815961115 -0.7370920785349983
13
algorithm=ase_bh size=13 seed=1 index=22 energy=-37.01983631578175 step=23
Ar -0.2180892840499329 1.455420046862675 -1.510226672900189
Ar -0.1732162354614465 -0.4149071780512069 -1.588003647614426
Ar -0.7053686034645813 -0.4964910788848808 -0.6082121552130025
Ar -0.5673215509276823 -1.000820257845671 1.12795279961782
Ar -0.4414889078591824 0.4170547607168736 0.005608445034224347
Ar 0.3192975571335969 -0.06224623380965761 -0.6559352613593654
Ar -0.7739126073609226 -1.368400285643647 0.08531919801759778
Ar -0.01128296345382881 -0.579310320813714 0.2610137528042274
Ar 0.4193904078679182 0.5391581679843844 -1.584132436275586
Ar -0.3497359571186464 0.1011678530355734 1.071907015965458
Ar -1.123750075572267 -0.357311318723279 0.4084934034838593
Ar 0.2622797953750047 1.04275402516997 -0.5894430543997258
Ar -0.5801931006930825 0.4927063900067839 -1.087204060671132
13
algorithm=ase_bh size=13 seed=1 index=23 energy=-37.25477687657378 step=24
Ar -0.5671735887807935 1.565121823104137 -1.187385453728686
Ar -0.6782674512447207 -1.316035856479311 -0.9663443289387854
Ar -0.3707257840029614 -0.03643499802620546 0.3071669589842293
Ar -0.9841146131856673 -0.9117149553470369 0.0280922422126985
Ar -0.5590699325755024 0.8058202508175487 -0.3756332583624024
Ar -0.6346050934355938 -0.2216309408055233 -0.7811493499986096
Ar 0.09489804933959543 -0.8878090570533559 -0.2883492486686026
Ar 0.6846607518470647 -0.3278519772922018 0.4708186937662786
Ar 0.3711793881467764 0.1701296320284207 -0.4849353249171445
Ar -1.402927182515669 0.1291178420201856 -0.06749996740292565
Ar -0.1584501818778132 -1.014508238786139 0.7839669435903198
Ar 0.4019805908866494 1.259312578796564 -0.7078026058214637
Ar -0.1407764781864166 0.5552584670271242 -1.393807974225143
13
algorithm=ase_bh size=13 seed=1 index=24 energy=-39.04365608153452 step=25
Ar -0.08785369016466621 1.131030637256678 -1.414132815386395
Ar -0.4116941543320329 -1.087184685454827 -1.144402521439293
Ar -1.096486772226607 -0.3138321966872686 -0.7482114327725056
Ar 0.0552322762888881 -0.605567160179293 0.6440122875911414
Ar -0.5457041205895657 0.6206780603424695 -0.5501740605850913
Ar -0.01797883470806282 -0.3610846383750049 -0.4213680784533489
Ar -0.7239579382365695 -1.101789245789196 -0.04276253081254906
Ar 0.1849083412115556 0.4674842603447535 0.2741963624151152
Ar 0.1872322824730128 1.418475437929425 -0.3437690769326063
Ar -0.9677679573105109 -0.8582099797863346 1.018694351962803
Ar -0.8238185804833876 -0.0289718325235014 0.2916559343343173
Ar 0.5605592047849887 0.4786348767598191 -0.7965395777248041
Ar -0.2560615822920955 0.009111036166485608 -1.430061515707022
13
algorithm=ase_bh size=13 seed=1 index=25 energy=-38.01210947901333 step=26
Ar 0.1102640862506182 1.051213585900041 -1.633590505099312
Ar -0.8042515202686266 -0.520825031785397 -1.073731935369872
Ar -0.9744398343541982 -0.03767940821839504 -0.07328445642047847
Ar -0.3552283451343048 -1.427983210646317 0.9037420713368861
Ar -0.5303680458571879 0.5404345303541478 -0.890475702101555
Ar 0.07009178448860803 -0.3058241525739586 -0.4336761500612152
Ar -0.6329116042482554 -1.093992480277479 -0.1218611086744524
Ar -0.1047012254507785 0.6376874926827487 0.1308983152230456
Ar -0.0497881359787819 1.493602062555099 -0.6014207721310979
Ar -1.227487677281257 -0.7368075935919171 0.7548509540465572
Ar -0.1817683819221204 -0.3607691445287791 0.6365626054671847
Ar 0.5988926816807151 0.6025311402782575 -0.742687960997363
Ar 0.1383046924905186 -0.0728132201438457 -1.518188028728568
13
algorithm=ase_bh size=13 seed=1 index=26 energy=-38.33581730758835 step=27
Ar -0.4465367031040307 0.9919272153103283 -1.229154529830984
Ar -0.3869381766977561 -0.8941204642614927 -1.360198708563836
Ar -0.8130817031171154 0.006995123962246998 -0.8790820687786541
Ar -0.2881928193008241 -1.026169778228137 0.5193971539271668
Ar -1.031015943405814 0.9104174938713847 -0.2687019760585305
Ar 0.06484636505138906 -0.5436797489443673 -0.4127285347334785
Ar -0.953369325412081 -0.980015320714133 -0.3847283043458327
Ar 0.3120121031616906 -0.07135813861013625 0.5586809874611514
Ar 0.01400682635504347 0.5485589869254677 -0.3173035470253565
Ar -0.5206205470322685 -0.2416359077318855 1.284079321325533
Ar -0.750863784574895 -0.05919997017453641 0.2144075251464126
Ar 0.6599361422233047 1.053919817607814 -1.063380312728364
Ar 0.1964260402683044 0.07313526099165352 -1.324149679305468
13
algorithm=ase_bh size=13 seed=1 index=27 energy=-37.12210210498171 step=28
Ar 0.1866732051608065 0.9086091341330832 -1.921532814384896
Ar -0.5561703338882517 -0.7955491966933772 -1.179080929778895
Ar -0.8783200147940177 -0.1649036842028418 -0.3238032055897783
Ar -0.2057459111618853 -1.240233289347803 0.9764881033123151
Ar -0.1614572831048419 0.6567182618059084 -0.1508051919357265
Ar 0.226183493740657 -0.3185388117216268 -0.5531083964066664
Ar -0.3941527592508279 -1.136785223881702 -0.1187189183517356
Ar -0.09255196679740679 -0.2438733183323515 0.4959483078892047
Ar -0.2067099758427732 1.390245414864052 -0.9857344477983097
Ar -1.109904183643374 -0.6825931755340304 0.6255090539683399
Ar -0.9642649071910114 0.4362156557832849 0.602986695790431
Ar 0.6292348541487003 0.6420177768298833 -0.9326260947308805
Ar -0.416205742960827 0.3174450263017276 -1.198384835493643
13
algorithm=ase_bh size=13 seed=1 index=28 energy=-38.85950082590179 step=29
Ar -0.7082168483337996 1.026529146717731 -1.276951717445436
Ar -0.3686043026097369 -0.7646919080463482 -1.41012048127396
Ar -0.9194934072035006 0.02435547336316235 -0.8593671415195806
Ar -0.5841977921874635 -0.8923789605839652 0.8051283484258335
Ar -0.8075388470891012 0.923208286106189 -0.1691201578341939
Ar 0.5221782083056389 -0.6308335089746779 -0.7540485222359058
Ar -0.4788562906841882 -0.8560065747366202 -0.3073465682792785
Ar 0.4067666979978365 -0.6717693936819848 0.3626225381290956
Ar 0.1928690721921874 1.137975071879937 -0.6325475899376093
Ar -0.1857076510704265 0.1560185167841845 0.8669597169049075
Ar -1.061048981504593 -0.07693080699772853 0.2290711210681069
Ar -0.03736655816596982 0.1484586214706955 -0.214151113293362
Ar 0.0858251747680675 0.2448406067036283 -1.302991106218858
13
algorithm=ase_bh size=13 seed=1 index=29 energy=-38.40539482636004 step=30
Ar -0.438116598607593 1.203371035703006 -1.364727795905633
Ar 0.2704423846053029 -0.6615548404038544 -1.359488875235966
Ar -1.195651989548228 -0.1969231221471195 -0.3692779816969295
Ar -0.7863904087197175 -0.6842663384429291 0.5664098856471618
Ar -0.9469492532026005 0.9064858020635813 -0.4130305616132656
Ar -0.2496445380140985 -0.7840944497309412 -0.3919667093339837
Ar -0.868770018438393 -0.74369600753342 -1.306667917766934
Ar 0.3533477094836281 -0.6020977166827819 0.5134668324641048
Ar 0.1935122814408143 0.9887294369421888 -0.4659711338640902
Ar -0.2332629052381438 0.03147031858009827 1.226116440635245
Ar -0.2967683617703871 0.2092739883525029 0.1359342548977403
Ar 0.6005933692346429 -0.0673769081405123 -0.4526366032748649
Ar -0.345733196810278 0.1694533714443871 -0.981022508462824
13
algorithm=ase_bh size=13 seed=1 index=30 energy=-41.04458334166754 step=31
Ar -0.4239370780352296 1.093106640279707 -0.7104902778473394
Ar -0.2373357136464216 -0.6235317529236101 -1.44404609436058
Ar -1.208113447327963 -0.6081765342176179 -0.8116731052220537
Ar -0.9083685167317627 -0.4029164399567233 0.2566103150273277
Ar -1.323093365399937 0.4518224942828802 -0.351014445964435
Ar 0.626656005976956 -0.4235612956670536 -0.7432748041447247
Ar -0.2517488216963022 -1.049233081230988 -0.3955803869039705
Ar 0.21561561722301 -0.2957302718788258 0.2927874259451452
Ar 0.2477191285094282 0.4288929909790196 -1.38147905125995
Ar -0.4029558553170644 -0.06395604314759724 1.188891940005613
Ar -0.4326969246928977 0.629006250586949 0.3180034763600671
Ar 0.5138413431766597 0.6117437003822995 -0.2968141573572382
Ar -0.358973897623529 0.02130791251576337 -0.5847835077881121
13
algorithm=ase_bh size=13 seed=1 index=31 energy=-40.96700186943452 step=32
Ar 0.193795901221487 0.2963837830335196 -1.449533597424456
Ar -0.0991824330136106 -0.7975888143776499 -1.199494507479463
Ar -1.259054897686792 0.3252889587523103 -0.341148015168253
Ar 0.0241421376921877 -0.9485852673826807 -0.06025862048217487
Ar -0.5327433138006857 0.971623030939989 -0.9054328914516228
Ar -0.2175116170607641 0.0111254752400167 -0.4914055580697314
Ar -0.9942729449615406 -0.7566147901704391 -0.508208043101667
Ar 0.3933618111071061 0.0565492352190007 0.3974669935370007
Ar 0.4961291270266874 0.8230569949364555 -0.4614749613333685
Ar 0.06077589846124426 -0.7901513604624394 1.043671806263216
Ar -0.7032616914909673 -0.2401125126368363 0.4520909924906287
Ar -0.4137260065921541 0.8238102660330328 0.2115220544218829
Ar -0.8918434964872461 -0.006010429120071664 -1.350658325712232
13
algorithm=ase_bh size=13 seed=1 index=32 energy=-38.14652926809942 step=33
Ar -0.7933984195916631 0.6242578994018984 -1.495250715068227
Ar -0.5227937219371048 -1.07992571082219 -0.6952366108509895
Ar -1.20063282858983 -0.1753840020095981 -0.8111342709391839
Ar -0.1906126005869343 -1.283792647278272 0.3651195099729483
Ar -0.6986839093294395 1.633034845116036 -1.022133963142821
Ar 0.4746321745358596 -0.7149043138428817 -0.3161790135951179
Ar -0.115369895201686 -0.08778895238609855 -0.9939294695508466
Ar 0.3635943222591647 -0.3619428520032036 0.7297436114820235
Ar 0.1987952586226258 0.9677509909979639 -1.060522554212244
Ar -0.6708272365300813 -0.5837319519095256 1.095792907944479
Ar -0.5045210880615369 -0.2701839048212996 0.04770237668703772
Ar 0.3743338650623808 0.3855549969416165 -0.1131386703078713
Ar -0.657907446236808 0.715830172619763 -0.3936958119294292
13
algorithm=ase_bh size=13 seed=1 index=33 energy=-36.8376391640175 step=34
Ar -0.03831259795268189 0.9438774308805169 -1.791229885191486
Ar -1.045117500656147 -0.6150551239349387 -1.462525515745938
Ar -1.191508034014618 0.02066387977462488 -0.5608687681118099
Ar 0.162199245681598 -1.003003050995385 0.3728525969763641
Ar -0.7661140916495572 1.014026418703976 -0.9460499562161191
Ar 0.4484107352597043 -0.1718675484805671 -0.3138309749089992
Ar -0.4427386155946405 -0.819562868640081 -0.5378775576236291
Ar 0.2165827616990916 0.04290467234601432 0.7553405616658037
Ar 0.3882562893021381 0.8912136478819737 -0.7561927109813186
Ar -0.3027024681820829 -0.7438433662630664 1.356039801329483
Ar -0.7716880201020823 -0.3809265429250385 0.4123466642041952
Ar -0.3627998607596279 0.5201589618569247 -0.05315074167182181
Ar -0.2378593686161457 0.07018805979925127 -1.137716187234965
13
algorithm=ase_bh size=13 seed=1 index=34 energy=-38.14091277807631 step=35
Ar -0.3650499113004456 1.587728683361902 -0.8277985611473218
Ar -1.014080380896142 -1.134169113671515 -1.383413907783135
Ar -0.933897703188077 -0.1637023989677543 -0.8468285055749746