13
algorithm=ase_ga size=13 seed=1 index=0 energy=-37.8109577616577 step=1
Ar -0.638005529356704 0.6018690974744033 -0.5776596895532226
Ar -0.8103048793621199 0.1155678448190242 0.3940229288188204
Ar -0.3541778126508436 1.143698247222041 1.935014894367095
Ar -0.9879615364084994 -0.4641813003782957 1.310207590668118
Ar -1.300133034456595 1.075967170214971 0.2077280896197207
Ar -1.81981152294244 -0.02894139050871393 1.916076417618408
Ar -0.751346385304193 0.1500822092091539 2.198124908583172
Ar -0.3686778220186368 1.598398586786758 -0.1876992631495737
Ar 0.1313447025435464 0.6837384389707105 0.2449279084005071
Ar -1.203588325075235 0.6502211234453106 1.291168654898315
Ar -0.1558645485373474 0.2894864981675462 1.255837889333488
Ar 0.5461574480180115 1.137501231455555 1.211650842532337
Ar -0.4765996685392128 1.341760189624859 0.8718568807359519
13
algorithm=ase_ga size=13 seed=1 index=1 energy=-43.89940495637394 step=2
Ar -0.7089226930444897 1.16036790343253 -0.554047232103279
Ar 0.4699790985491301 -0.06688164463178936 0.1470998512530856
Ar -0.09172783941308785 1.20802693675006 -1.508369672334835
Ar 1.08718591716606 -0.0192035529365802 -0.8072120609074686
Ar -0.001114637697104015 0.9552056959599592 0.3124650346741349
Ar 1.053533088183311 0.8760828793725813 -0.1063146942008309
Ar -0.6192826593180343 0.108818144958519 -0.1296133927527356
Ar 0.1891272931543918 0.5705775905916806 -0.6806330390773462
Ar -0.6752835542067719 0.2650748917683074 -1.254947691039532
Ar 0.379374607739361 0.1859465757061567 -1.673728905579126
Ar 0.3249354805024975 1.634558272250543 -0.5396572369305253
Ar 0.9975389623144554 1.032337727518106 -1.231656628385976
Ar 0.05332342215672724 -0.4934048458764087 -0.8216134709556451
13
algorithm=ase_ga size=13 seed=1 index=2 energy=-36.92055078934684 step=3
Ar 0.1803591649452821 -0.749252976766401 0.3770825958827521
Ar -0.5313806511847819 -1.011544957223265 -1.343861330681307
Ar -0.1288339106171409 -0.2627643865083671 -0.5776768204719037
Ar -0.7985060759270031 -1.95656913448271 -0.7095656042535636
Ar 0.554561414101619 -0.7370701706744373 -1.314794701711025
Ar -1.593682165982802 -1.295286404116541 -1.149373312005375
Ar -1.10782965202106 0.1301458263607779 -0.1943370917222168
Ar -1.175982174104802 0.4928008228146685 0.8601074092735284
Ar -0.506126050014277 -1.63355199528968 0.3811498564686935
Ar -0.856074594188848 -0.5606576146503143 0.6850932589709973
Ar 0.1058078213648885 -1.365410070639433 -0.5164401631754445
Ar -0.180398152314028 0.2940449116874964 0.3913344445357256
Ar -0.9440405757269359 -0.9402402756447685 -0.3291112861731011
13
algorithm=ase_ga size=13 seed=1 index=3 energy=-40.11389759470074 step=4
Ar 0.120219233064995 0.4082133940949058 0.2748478320817425
Ar 0.2357063526122201 -1.188453686874652 -0.7268308165068001
Ar -0.08893615475956773 -0.09787292370625021 -0.7342317486089136
Ar -1.425461265258349 -1.752660224025373 -0.2086332199831755
Ar -0.4163328607632046 -0.8393328763692466 -1.54735026566996
Ar -0.8957440204866725 0.032907659098695 0.05745555454834303
Ar -0.356212990316863 -1.711099047635111 0.06945129212146818
Ar -1.069663737900159 -0.9689257879779922 0.5303936648569
Ar -0.6241365940754774 -1.841044609117641 -1.017176721192537
Ar -0.8364859695707358 -0.8824555367059133 -0.5356368023331646
Ar -0.1797192088140882 -1.284275648648957 1.105629972047132
Ar -0.02589087259376041 -0.6758726544018659 0.2016027446059045
Ar -0.4711503092653284 -0.1809105155851884 1.069140414871839
13
algorithm=ase_ga size=13 seed=1 index=4 energy=-37.11692368192447 step=5
Ar -0.6147895903662126 -0.7302797417757343 1.185580561572414
Ar -0.9977217200931124 -0.1831296599042955 0.3019341913952107
Ar -0.2489569538489719 1.150751402798551 -0.6956571895106546
Ar -0.2290893723952713 0.3826755162339475 -1.460085291088981
Ar -0.08349452860035832 0.04551212604745268 -0.3939094082681714
Ar -0.8611383873701042 0.3684748220661623 1.260682973248121
Ar -1.073263148015352 0.3526189987936791 -0.6880994191430585
Ar -0.6231999093500632 0.8299545963764019 0.2700151904558505
Ar 0.4793394302935086 0.8640234369098897 0.1018330347880639
Ar -0.8193171322968111 -0.7810489460514259 -0.5773383806628152
Ar 0.03202886038584162 -0.6657945753266821 -1.261510815741599
Ar -1.030106199827144 -0.3588760252154046 -1.566988699090463
Ar 0.03755547698956314 0.02841275572325166 0.6981726095940022
13
algorithm=ase_ga size=13 seed=1 index=5 energy=-38.27007542245766 step=6
Ar -1.014790281622721 -0.7596650925658349 0.7019831566151357
Ar -1.539761050306803 -0.734927957505946 -1.08937662786939
Ar -1.159726497893126 -1.353940085940049 -0.2368123326193929
Ar 0.1305823004939335 -0.128575785928626 -0.5627422208970184
Ar -0.1412133383006274 -1.012810317147357 0.0546709811620716
Ar -0.1534544223225723 1.056680657753248 0.7887294325154005
Ar -0.2190256639925814 -0.00959928898635388 0.5092973729598125
Ar -0.4486023298811776 -0.9640274947272947 -1.012802086861008
Ar -0.477323854253309 0.755557652100614 -0.2485522910128854
Ar -0.9345568652267274 -0.2617501130452837 -0.2890863307616942
Ar 0.7822430267417422 -0.4276212456042758 0.2948834584165493
Ar 0.63489764071885 0.3179364903984133 1.128296250399219
Ar 0.5914392014405194 0.651685724836645 0.06709908810045215
13
algorithm=ase_ga size=13 seed=1 index=6 energy=-40.24640124817584 step=7
Ar -1.138827281216661 0.7754560408332241 -0.1274628175570969
Ar 0.2296089981465873 0.3493268620025764 1.008607882096264
Ar 0.2089499381045215 1.455928549250025 1.038630586708088
Ar 0.5865449827868158 -0.2316243078390019 -1.083175710270542
Ar 0.6875846829240527 0.8250839763951501 -0.6968998835576358
Ar -1.222897989787709 -0.2808338076668621 -0.5189759923444109
Ar -0.07025463180207746 0.9569434706503201 0.09976800507693107
Ar 0.4997189516699064 -0.01056006464279973 -0.001632944515070381
Ar -0.5482603995233035 -0.0390316025459617 0.3251297349430826
Ar 0.9842225464759596 0.9137953289212304 0.3986221489384508
Ar -0.3138384482663751 0.3126482498290894 -0.737579778727371
Ar -0.1977540075038321 -0.7517166755997874 -0.4580702045251662
Ar -0.7647114919706858 0.8663325711807375 0.9439070452369476
13
algorithm=ase_ga size=13 seed=1 index=7 energy=-39.13560303405634 step=8
Ar -0.05112693883838692 0.70380778255748 -0.1044365406726114
Ar -0.1598939503631675 -0.1410501170084639 -0.7798171609814445
Ar -1.177545457593491 -0.5675889280305109 -0.6786624539977725
Ar -0.04021830012567109 1.470660056459693 0.671078501811471
Ar 0.4014479620474841 -0.2521741554719577 0.1988911651929388
Ar -0.9860953223997968 0.8813192478730092 0.4981610820666683
Ar -1.033314599892044 0.5527111708560019 -0.5768587173503792
Ar -0.2769358056658365 -1.072828670644526 -0.1917040372146822
Ar -0.7054499588543481 -0.1457246802095278 0.2243239349415737
Ar -0.6661261800251769 1.596797330280409 -0.2782630979400036
Ar -0.6789865036577315 1.160911911545875 1.531065857745688
Ar 0.8396899730016512 0.7520381040563976 0.5358423810931554
Ar -0.1040347626828519 0.3865024085719413 0.9750638155854882
13
algorithm=ase_ga size=13 seed=1 index=8 energy=-39.24752623546843 step=9
Ar 0.6797350784760493 0.3196483260195284 0.4510231009503725
Ar 0.2505062612986953 1.178989222169406 1.083286012847817
Ar -0.1410927582091791 -0.2178056671293293 -0.1468724465212085
Ar -1.086558163934608 1.426321944762631 -0.159787997551414
Ar -0.09803206161766048 1.531040567505837 -0.6667175585022604
Ar 0.7175435044032136 1.376452749433535 0.08483558238480698
Ar -0.884421693791613 1.26496560809488 0.9556517817905035
Ar 0.4644772622826338 0.5733944514311804 -0.6332206109201102
Ar -0.2125142903329801 1.920843706753147 0.3661589897679036
Ar 0.9408154996529047 -0.3929292220099462 -0.3684342135970648
Ar -0.2475519849555638 0.8208945109896918 0.1826576287806541
Ar 0.02672721270428388 0.9217817034529054 -1.592520343650752
Ar -0.6596120478640787 0.5648352434170442 -0.7903149923516746
13
algorithm=ase_ga size=13 seed=1 index=9 energy=-40.96700194343757 step=10
Ar 0.277787845128543 0.439948328251264 0.4327114041501572
Ar -0.5795688248085679 0.5303385761575221 -0.2169808614762527
Ar 0.3439573164643182 1.235479067890248 -0.2939847841163751
Ar -0.2164940638257126 -0.4899348622451788 0.1869360354519816
Ar 1.272607285741076 0.6470155511184097 0.06277172471642968
Ar 0.9283609388059476 -0.4202076877595939 0.3588242761829074
Ar 0.2039949663280209 -0.312598064125682 1.221106702363305
Ar -0.6951353832278143 1.620507514434763 -0.4250312466986899
Ar 0.103371264160762 0.7807946462040926 1.462031607409165
Ar -0.3688267394561353 1.303977525212179 0.5896430597395903
Ar 0.7458008910570282 1.373810812138053 0.7519764315968918
Ar 1.102301386791583 0.3732648748957574 1.146203437335276
Ar -0.7063749157589228 0.2650562485657177 0.8730572901121828
13
algorithm=ase_ga size=13 seed=1 index=10 energy=-38.35296975872178 step=11
Ar 0.9703782406909589 -0.06130298793349958 -0.8846889160435709
Ar 1.002834663744042 0.9362574651428139 -0.3571612536671663
Ar 0.03038596810985739 0.4912362442061682 -0.6736464847157801
Ar 0.7272941998520326 0.8802932703390999 -1.440101692179319
Ar 0.04782862374632466 -0.6044863535405023 -0.5428287001728448
Ar -0.8884830783307794 0.9310340706892611 -0.2346798525920935
Ar 0.1214414308514185 0.2747804091611896 1.131496937391843
Ar 0.04017759030570055 1.370771164492168 1.334648757715362
Ar -0.9185309778346571 -0.06198255523134451 -0.7801750108240635
Ar 0.09701811323104956 1.004878914651013 0.2890940094083831
Ar 0.6361693741719724 0.03250254964461597 0.17033757144785
Ar -0.4628201469934683 0.01660242642254557 0.2257616833784994
Ar -0.8296592249489224 0.8293671996871048 0.8824845569703711
13
algorithm=ase_ga size=13 seed=1 index=11 energy=-39.00542299962435 step=12
Ar 0.1816253623025268 -0.2291496928537268 0.4276307838965288
Ar 0.1279143989438775 0.7017564913598765 1.092424776013205
Ar -1.210838824197162 1.375377443076429 -0.09322588388522056
Ar -0.2655242988658579 1.177949698780801 -0.6319409348224418
Ar 0.5161209938590163 0.7846533582158142 0.06032337011176901
Ar -0.2004128486710119 1.572418187717421 0.4177995435805998
Ar -0.5708065250273954 0.5568560773039242 0.2590473356281431
Ar -1.091691794879391 0.4115485789241008 -0.7000975106295161
Ar -0.02795725746066917 0.1030925593737062 -0.6116926206423746
Ar -0.9285856813439892 -1.465974243625467 -0.4861542634616435
Ar -0.7279534697661573 -0.5720912080596616 -1.127001453677765
Ar -0.8284832470513998 -0.4577080299195015 -0.02641475296150561
Ar 0.07367147141529855 -0.9754174690976734 -0.417063121398667
13
algorithm=ase_ga size=13 seed=1 index=12 energy=-37.00020947689417 step=13
Ar 0.3505662271858001 0.1842886186152683 0.9023007854967809
Ar 0.04144911144484315 1.252012551010626 0.979043574824549
Ar -0.192569282471632 0.7073090197982835 0.03697804133815226
Ar 0.6078904041533507 -0.05019954820260362 -0.1526901979706197
Ar -0.3831572134432895 -0.3574556093687217 0.2807796556341822
Ar 0.8653804549917431 0.9509707462541518 0.2754649922736247
Ar -0.7361867567343757 0.4402854987477262 0.9707697567260887
Ar 0.1288582414517409 -1.000064936402536 -0.463776103584427
Ar -0.3051137061169343 -0.02232932923538501 -0.7897562741667622
Ar -1.006147477082706 -0.8327264722248674 -0.4964831193064971
Ar -0.4088045928648501 -0.9311523778008247 -1.434168725695828
Ar -0.5357035970217391 -1.458993717131626 0.3020863110159575
Ar -0.562561414952287 -1.819672696971639 -0.7622877179404429
13
algorithm=ase_ga size=13 seed=1 index=13 energy=-38.51919113643549 step=14
Ar 0.01362966092558508 0.4980705259636203 0.6012008278202663
Ar -0.9127194262242742 0.7132994073773277 0.06529316790512128
Ar 0.04098759370252313 -0.5561040214077219 0.3148165444261596
Ar 0.9141631747535055 1.103883794524648 0.4889672634270474
Ar 0.09757079579417224 -0.2760839478862548 1.395861332221654
Ar 0.965170847188968 -0.02321867325354112 0.7137704678827275
Ar -0.8573280082407758 -0.1104232872665815 0.8292350845324818
Ar -1.321259323802785 0.01081171809339843 1.823141991716075
Ar -0.4580498668350158 0.6567320961264972 1.590947565726173
Ar 0.02627332977483771 1.279957820811266 -0.1760990778705463
Ar -1.395770689015577 0.8433011408580493 1.052688117991806
Ar 0.6361794147353079 0.7129806388323056 1.492294541932701
Ar -0.4684600990221673 1.448905389857727 0.8148663461600348
13
algorithm=ase_ga size=13 seed=1 index=14 energy=-39.20032454551538 step=15
Ar 0.2165124358836412 -0.1545558143778454 0.3703451836059578
Ar 0.2611722631227105 0.5777071810070035 1.210242865384434
Ar 0.7121245409444733 0.8709925210495784 0.2294823916161434
Ar -0.3918092600434944 0.809181469275299 0.3405388093948072
Ar -1.00314563128927 -0.9850922957041122 -0.7915744902929309
Ar -0.7749474455876195 -0.1137053424145681 -0.1368025243210044
Ar 0.05789425926609334 -0.6830306539607393 -0.6329417677160464
Ar -0.8896338454522245 0.8743960058925603 -0.6496288745997971
Ar -0.1295799861630915 0.9475165522359642 -1.468687583643848
Ar 0.1197914451395787 0.4004140008644084 -0.5606569746990744
Ar -0.647483333095382 -0.03123288722596308 -1.242527941209847
Ar 0.4251680799966683 -0.05461809874411573 -1.510653523405228
Ar 0.03289654510775172 1.481596023985049 -0.4587252193503804
13
algorithm=ase_ga size=13 seed=1 index=15 energy=-39.11774971072443 step=16
Ar -0.5215982483558174 0.9135991687465033 -0.2114102584799162
Ar -0.05155943832263243 1.113953925501654 -1.171451527545518
Ar 1.28591411349785 -0.1038598223465688 -0.9633862687798558
Ar -0.5733816598352103 0.1247069600229131 -0.9793394113695439
Ar 0.3904166575697872 0.1817749926758882 -1.572067326477444
Ar 0.4673029099913112 1.400193615544275 -0.2036342991919198
Ar 1.043923618724657 0.9827210786239018 -1.084970418327786
Ar 0.2366496766062934 0.6140414116767274 0.5725348820137639
Ar -0.2960165501419789 1.581346061968439 0.6297238644850145
Ar -1.388937577176499 0.241812163865447 -0.1849419300415982
Ar 0.3917950271425277 0.3300800104482411 -0.477330819007704
Ar -0.4013513175491952 -0.1679200418109359 0.0969734049749723
Ar -0.867648324453746 0.5958217371503516 0.7753469925916944
13
algorithm=ase_ga size=13 seed=1 index=16 energy=-43.89940495696874 step=17
Ar -0.9385745476444091 -0.6004043049870379 -0.462358519257709
Ar 0.1676252107049018 -0.8020110381133693 -0.634443165523651
Ar -1.105821648613873 0.5227273771890143 -0.5297170720773685
Ar -0.1029838361068222 1.015256549880312 -0.7434338668880932
Ar -0.1778168257037086 0.1070281614488662 -0.1604260388119166
Ar -0.3596660943247141 0.01622587092985789 -1.222996251204044
Ar 0.6840477988784796 0.1965191903316972 -0.808156023502192
Ar -0.5232609143227558 1.01606757105497 0.3135880088237625
Ar -0.2526454236692566 -0.8012003061836988 0.4225820902602118
Ar 0.5829382921292809 0.8144647060307233 0.1415054065638371
Ar 0.7501877704081577 -0.3086681877142948 0.2088680366790351
Ar -1.039681016478547 0.01752653434728198 0.4873043235804907
Ar 0.004026167672674754 0.1978405557974982 0.9021440955956248
13
algorithm=ase_ga size=13 seed=1 index=17 energy=-39.20947363127678 step=18
Ar 0.2310457265488377 -0.9296864214388765 -0.5470896272402868
Ar 0.01933675311947184 0.1502891181576293 -0.5394932567028603
Ar -0.2102818791918473 -0.7952558719939216 0.4587476997069506
Ar 0.6782827696399119 0.83472787754627 0.04089265048627587
Ar 0.7311994811332301 -0.2657589488059487 0.2045340025978245
Ar -0.1762285775451176 0.3077005154106539 0.5302628090458286
Ar -0.9992091547026722 0.8806491112716341 0.07072118506973088
Ar -0.1661104612623507 1.234797097068315 -0.5657247448541429
Ar -0.1364118052172641 1.418211014432104 0.5338152269795352
Ar -0.9293927943362974 0.5254909990384639 -0.9782713065521846
Ar -0.8063984602582486 -1.286860443839092 -0.3479719671162685
Ar -0.6180329491595968 -0.5304465985004723 -1.147674995519061
Ar -0.9351089974187843 -0.2053921013040821 -0.1272824916859712
13
algorithm=ase_ga size=13 seed=1 index=18 energy=-43.89940493374176 step=19
Ar -0.9414137292880234 0.8882641608829541 0.1014176635769104
Ar -0.02993140551252952 1.20451418178874 -0.5011714669886355
Ar 0.0937333656286186 0.8453395468619042 0.5710432486903108
Ar -0.8456565798154894 0.5797850097863024 -0.9892785042903535
Ar -0.3669253040045525 -0.859653452111905 0.05302555737946205
Ar -0.4906075050045924 -0.5004765042721367 -1.019179860277758
Ar -1.226127794156099 -0.1654818911888635 -0.2187267896878583
Ar 0.5445499249442781 -0.5433851515797297 -0.5495639950762945
Ar -0.1984362072283606 0.1724329488185256 -0.2240692721269396
Ar 0.2486798247718249 0.3462405761760869 -1.193738019318864
Ar 0.829261503352954 0.5103399836511039 -0.2293990809274801
Ar 0.4487762771929284 -0.2349276883603071 0.5411468239561072
Ar -0.645558579146369 -0.001369254504691591 0.7455969124137797
13
algorithm=ase_ga size=13 seed=1 index=19 energy=-43.8994049316215 step=20
Ar -0.05849646690430284 -0.6822356091807538 -0.3087033549450049
Ar 0.6085428804474695 0.1000415027252032 -0.7955425770762198
Ar 0.01564879975788678 -0.5546634363574474 0.8191969952935325
Ar 0.9367994987352385 -0.4070048994627498 0.1683465118953196
Ar -0.5154812985166284 0.265789363201031 -0.740397226313769
Ar -0.8819122627027857 -0.1388522546229033 0.2575641681461137
Ar 0.1973950223010735 1.126909210207816 -0.5301621209352604
Ar 1.094942516138108 0.7111037946759866 0.03148797036405172
Ar -0.7237656292715992 0.9792657152351928 0.1206943827934208
Ar -0.3955214882804337 0.4722021780906016 1.084579544651509
Ar 0.2715260220283619 1.254504676494453 0.5977312623774286
Ar 0.7284940345255424 0.3064882611970257 1.029450374085912
Ar 0.1065143520014088 0.2861293891578919 0.1445198611744435
13
algorithm=ase_ga size=13 seed=1 index=20 energy=-38.2840349317372 step=21
Ar 0.2473710109837645 1.199178193810914 1.13497748340304
Ar -0.1301185484455398 -0.2526920797120077 -0.1934267016526449
Ar -1.106653577764197 1.340035773316515 -0.07731801583793321
Ar 0.6942610210823559 1.387885511191838 0.1168091058100574
Ar -0.8779953510529568 1.168163956874205 1.013103481548234
Ar -0.2633465566444915 1.88272350247063 0.4195946663729354
Ar -0.2125188997938909 0.7653745529612354 0.2297746634323833
Ar -0.9912251357203973 -0.5002352175921482 -0.8601394164637138
Ar -0.6769407859196082 0.5569833844700796 -0.7460139804351649
Ar -0.02907444148670518 0.9382125946354622 -1.563099421359962
Ar 0.4617489429386556 0.5844716233825344 -0.627226597117282
Ar -0.02325067507901966 -0.1530543067718099 -1.305800715022847
Ar -0.1408495212805924 1.517826774566263 -0.6152316671693029
13
algorithm=ase_ga size=13 seed=1 index=21 energy=-40.96700189763531 step=22
Ar -0.8655848585962105 -0.4512707897420464 -0.419740592367006
Ar 0.2450555975142775 -0.4263639853340945 -0.5917086618971761
Ar -1.23304534276268 0.6142689729746659 -0.3225705630408935
Ar -0.2505042119845677 0.3321094622475085 0.02894689001792736
Ar -0.4042579361634002 0.3675076711505209 -1.051998072218322
Ar -0.1530362501029013 -0.6786952073754684 0.4312321345077656
Ar 0.7452429263592903 -0.004761198212121227 0.3192560500868188
Ar -1.075100227040716 -0.0489723226467643 0.6156499657097986
Ar 0.5927426435744946 0.6449283294206412 -0.5908476696003438
Ar -0.3103549385695669 1.308303132713246 -0.432439120576702
Ar -0.0588314603838542 0.2355531823030348 1.086901470096517
Ar 0.4154742383834815 1.07733742701974 0.4369036259338378
Ar 0.996102719696778 0.5651363479606806 1.240423392519096
13
algorithm=ase_ga size=13 seed=1 index=22 energy=-38.80673280965671 step=23
Ar -0.3602435652414765 0.3416205230414712 -0.3946459947129433
Ar 0.006042584080579439 0.003393924173591227 0.5570868481421145
Ar -0.1361897907893056 1.018277715974807 1.053779050775611
Ar -0.3206392923204595 1.365687045525974 -0.01290082526751641
Ar 0.7473482956560366 0.01767579921026392 -0.3257676096571065
Ar 0.6293030221249974 0.8982825141390152 0.2844413414616666
Ar -0.975571403970475 0.6076817274927147 0.4806896251270859
Ar -0.9641905245654945 -0.4370394619636624 0.1425549376755763
Ar -0.02958828715882277 -0.7367039236808017 -0.3425869250632946
Ar 0.4201280222846669 0.9684760975496188 -0.8160695446745533
Ar -0.8827820808348141 -0.4260634038443134 -0.9857289933534152
Ar 0.1595187661679044 -0.07501930021334977 -1.259565308819425
Ar 0.6406926490996876 1.888989590004515 -0.2179266123227837
13
algorithm=ase_ga size=13 seed=1 index=23 energy=-41.04458337192628 step=24
Ar 0.5210211975401474 -0.6265541404113638 -0.4115809279940076
Ar 0.3136568565727657 0.3292820253778626 -0.9808706823611848
Ar -0.3353149086002979 -0.7600614494804562 0.3602101368378443
Ar -0.5425541554750611 -0.3448708997349058 -0.6704499619320102
Ar -1.037897129141166 0.1185627805562933 0.2371666712194223
Ar 0.03749766213007421 0.2122886678014816 0.0695587973577704
Ar -0.64060787509555 0.7696036629122646 -0.5864666030298232
Ar 0.3526004836308452 1.201409447423194 -0.2652487163903383
Ar 1.086203505239251 0.3513977684240007 -0.1532422143881284
Ar -0.5557988164815999 1.843754391178223 -0.3065172662415369
Ar -0.298163463403439 0.1355699079689129 1.094365374660801
Ar -0.4871001449324962 1.070493807096901 0.4914973956867179
Ar 0.5772925159074039 0.828899605369219 0.7752029936309518
13
algorithm=ase_ga size=13 seed=1 index=24 energy=-40.96700191748779 step=25
Ar -0.2492612037382942 -0.3962895615758959 -0.07944506250476051
Ar 0.9585168754301137 1.029211735025295 0.05551225280484092
Ar 0.8526816618323163 -0.1228512812644968 0.1370945644690081
Ar 0.1304121611278534 -0.3354049217763043 0.982048361891755
Ar -0.1950900391510062 0.6493678432459798 1.421174608402627
Ar 0.8633497846178585 0.5246760381090554 1.063584911392229
Ar 0.03511300645968712 0.5515950489416505 0.3518071025240858
Ar -1.362444319362777 -0.3792382178656195 -0.1545555639568023
Ar 0.2997231787703439 1.4846654983125 0.8544982930648554
Ar -0.8812305350576349 0.09558490552144087 0.7281658483985888
Ar -0.8286983598325112 0.5906509311182681 -0.2944365775553003
Ar -0.08161642495489109 1.468496102000123 -0.2095037439873803
Ar -0.7807273106716875 1.216488909837755 0.6440134201783817
13
algorithm=ase_ga size=13 seed=1 index=25 energy=-38.71565640842208 step=26
Ar 0.02252546370405914 -0.0393590704567738 -0.5881394128326325
Ar 0.1999852736110181 1.045576248808024 -0.3220224213734674
Ar 0.7526509327456627 0.1556703972074922 0.1949460040196604
Ar -0.6576701488880974 1.75419483746275 -0.5226312865779292
Ar -0.07159409070262818 -0.6042044836092749 0.3697927432474817
Ar 0.5927646652717536 1.099260192202616 0.7350966048930883
Ar -1.205004874593796 0.9583439598549801 0.08149201197223425
Ar -0.3813191326386178 1.562340840886969 0.5227003070491204
Ar -0.2920646401196106 0.4595961814887938 0.4428152698839884
Ar -0.7162723087700384 0.7131985027671006 -0.863974320394808
Ar -0.4663275271095809 -1.053061298088274 -0.5551473545757526
Ar -0.8395080218077186 -0.300548617492775 -1.270932202200008
Ar -0.9907361914312472 -0.1321304547049457 -0.1658662479893408
13
algorithm=ase_ga size=13 seed=1 index=26 energy=-35.02555380294704 step=27
Ar -1.13771686872054 0.2968067339256613 -0.5368383152261875
Ar -0.1659790827257882 0.8251600892679357 -0.8600036861628827
Ar -0.165068134520385 0.003123621286054014 -0.1492463416251876
Ar 0.644619838587652 0.02442279881609869 -0.8749533335855816
Ar -0.1965244347840412 -0.8105355562033766 0.5876757506494283
Ar 0.5928490079464607 0.765929661837042 -0.005006521876136725
Ar -1.006769848463856 -0.02952372851979484 0.5492575499599477
Ar 0.04560255388087734 0.2605031309722041 0.8832476776604584
Ar 0.2407338044288231 -0.9544619467448485 -0.4449058185520959
Ar -1.421776068261868 -1.738822350663347 -0.4850288875416617
Ar -0.413413250082339 -1.73678988573252 -0.00274445128449537
Ar -0.5247648033333594 -1.434554649811432 -1.087262475238764
Ar -0.9063196724525979 -0.7768082539466711 -0.281214500350464
13
algorithm=ase_ga size=13 seed=1 index=27 energy=-40.96700194678431 step=28
Ar -0.9210022303342803 0.7379475861025276 -0.5176909506358128
Ar 0.1613180218773538 1.087194142168231 -0.5040180605999004
Ar -0.6663075808215956 1.805395094891589 -0.3157135987934052
Ar -0.08484818768673846 0.1078673842603714 1.039934584593234
Ar -0.4121180773957973 1.063325252546546 0.4779055036392282
Ar 0.6592153393509078 0.7096042873412794 0.4357385064337385
Ar -0.9053516898308942 -0.416771303036448 -0.5653755069495296
Ar 0.1781061027439195 -0.7388445387153746 -0.5782365283497364
Ar -0.1514166033407043 0.1519075223233892 -0.0385041640991675
Ar -0.1409510268337628 0.1979785396423191 -1.129754988577767
Ar 0.8220909039067392 0.1819885147869839 -0.5459219853905336
Ar -0.3904305575104196 -0.8080164743062556 0.3973708061105868
Ar 0.67307617414989 -0.4223558003444249 0.3901696895755733
13
algorithm=ase_ga size=13 seed=1 index=28 energy=-40.18807133148724 step=29
Ar 0.8461825275365357 -0.4645972288302153 -0.4593339046690758
Ar 0.3444473851068992 0.3349656019823041 -1.079576917806738
Ar -0.252348345016885 -0.5061395640288543 -0.6611194999873979
Ar -0.6611083903722768 0.5383944199274842 -0.6542240014057806
Ar 0.1734669855480676 1.248887215659362 -0.4321699630709793
Ar 1.138104634674691 0.6370660850823133 -0.3663296882601054
Ar -0.5770380746635799 0.9435409063161452 0.3899235226762631
Ar 0.1857339882987094 0.2590619708774465 0.02278786616603713
Ar -0.8387528021961037 -0.1339511285913378 0.2042118110453013
Ar -0.8228365791371087 -1.221736952730904 -0.0188894245603859
Ar -0.7600914042728083 -0.8541945570748319 1.044248388772172
Ar 0.1165043299794631 -0.7672830138142503 0.3646948511348161
Ar -0.1662412279665229 0.09897168731709009 1.049528397905263
13
algorithm=ase_ga size=13 seed=1 index=29 energy=-43.89940495468019 step=30
Ar -0.3440372518888714 0.09427639349914943 -1.235059119978731
Ar -0.9110116051001731 -0.5108929905311619 -0.4564450725812338
Ar 0.162957120351558 -0.7816186770956336 -0.715739110150961
Ar -0.1808809454060823 -0.7942978744404255 0.3684915495183878
Ar 0.8373407450296031 -0.3642879683772487 0.09971671016438931
Ar -0.9003685806581407 0.07376257363787393 0.5192640207915786
Ar 0.1801792220835275 0.1643778640098969 0.8629840403380561
Ar 0.7365085360583009 0.1848871305551083 -0.8913287598755849
Ar -1.00121157292732 0.6229322985563521 -0.4717887044676939
Ar 0.01701389186389591 1.052946447868899 -0.7405730600031802
Ar 0.747147844615153 0.769542992997583 0.08436737879589046
Ar -0.3268244116597573 1.040271755278569 0.3436580202940447
Ar -0.08193439710037745 0.1293253779623296 -0.1860364644163068
13
algorithm=ase_ga size=13 seed=1 index=30 energy=-41.04458337759566 step=31
Ar -1.1053990135811 -0.9693739559563782 -0.5770156453499915
Ar -0.9092186241162408 -0.04909226268365854 0.01802443159429872
Ar -0.8448841176156141 0.8840154079703973 -0.6139568319023035
Ar 0.04600363637753561 0.7812698554632362 -1.306561450224156
Ar -0.5875308095187514 -0.1120684088461062 -1.063023451824066
Ar 0.5286403432786833 -0.2238453469362829 -1.104696881097372
Ar 0.9261871178001305 -0.2373268958782586 -0.04447664974094395
Ar 0.1217391975662296 1.424006834521026 -0.3798874412595854
Ar 0.9920142074246698 0.7220567939108319 -0.6908330411199539
Ar -0.4806622775848215 0.897402447691257 0.4581669603259898
Ar 0.05466125098484276 0.3476331565401851 -0.3033800855159659
Ar -0.05587312639817722 -0.7373841513593218 -0.2868678963601539
Ar 0.01141321719905957 -0.1343819177892747 0.6637341268837711
13
algorithm=ase_ga size=13 seed=1 index=31 energy=-38.76434659588312 step=32
Ar 0.202509835568281 -0.8266148607436545 -0.7916586162386688
Ar -1.169286416127229 -1.426280937500687 0.2327569222012637
Ar -0.6531924571919548 -0.2064642820960082 -1.161737362568167
Ar -0.07113075586004147 -1.439311936970507 0.05835812068785932
Ar -0.7873557960207112 -1.320782896124566 -0.8306807619937672
Ar -0.6797352063117411 -0.5042463237786011 -0.1157260383121012
Ar -0.453237651078744 -0.8764976152394623 0.9167270790471597
Ar 0.319840868617608 -0.3590112859981012 0.2513190453083026
Ar -0.5720158455363312 0.1993227391150171 0.7266525550061486
Ar -0.7251449489512576 0.5698923992589288 -0.3143161086271026
Ar 0.001210326805765783 1.329985074337193 -0.6773584566769701
Ar 0.2402057030331819 0.7717950268021557 0.2661376521862103
Ar 0.2547064894670055 0.2467196100206113 -0.6951441789717014
13
algorithm=ase_ga size=13 seed=1 index=32 energy=-43.89940493728243 step=33
Ar 0.3953582662892275 0.9752401069245327 0.5219396410807031
Ar 0.7594457146433046 -0.06069765075534139 0.2249455082849345
Ar -0.7355276378211841 0.9983017310278989 0.4014569200676055
Ar -0.1464101816099569 -0.677882243348637 -0.07906373238458912
Ar -1.07035712660052 -0.02338913598832509 0.03002328244925967
Ar -0.2234811679345936 0.05779243667247893 0.7850941516039176
Ar -0.9749305079308834 0.8438991196844904 -0.6997990566523815
Ar 0.007979374847626263 0.7254176858089414 -1.259946637800279
Ar -0.6108371284857551 -0.1920552034763779 -0.9967731068625861
Ar 0.5200412814345128 -0.2150930039882572 -0.8763179146073955
Ar -0.06906217084263021 1.461093591635629 -0.3957780376142182
Ar 0.8548778162878619 0.8065917460302996 -0.5048789250671029
Ar -0.1077390114604496 0.3916033189745854 -0.2374268130578197
13
algorithm=ase_ga size=13 seed=1 index=33 energy=-40.18807126316239 step=34
Ar -0.4776750733406522 -1.711331200116478 -0.2681895182591366
Ar -1.138713127508063 -0.01942822138593518 -0.1019283449688958
Ar -1.125186068836359 -1.042944811558959 0.3350278149156297
Ar -1.09926180654965 -0.9028638943561991 -0.785440838451735
Ar -0.2212485688248821 -0.6487248787281072 -0.1880949809447788
Ar -0.07550322243603656 -1.258767362520361 0.7026999542804163
Ar -0.522883501640398 -0.239417362976563 0.8094098777389473
Ar -0.9021585681914176 0.9608840432823117 -0.584607788887278
Ar -0.4697298870761776 0.02481568445864494 -1.000298009248528
Ar 0.5538933295194629 -0.3129569967793711 0.4985829394542008
Ar 0.1735085954429472 0.9288344548615626 -0.9180408669253525
Ar 0.6014085165073886 -0.06617789212543744 -0.6212323325252478
Ar -0.1366248757954831 0.4390306632005716 0.02772745527426512
13
algorithm=ase_ga size=13 seed=1 index=34 energy=-43.89940495890854 step=35
Ar 0.7185445241621867 -0.05986293468292854 -0.5591490398573935
Ar -0.2783453244809769 -0.08284876519810852 -1.106520834226199
Ar 0.02512338336434061 -0.9537658046560966 -0.4406845748878976
Ar -1.044915448070287 -0.5683461883986627 -0.4205254107335002
Ar -0.5217959747930173 -0.8454179256554936 0.5508203911398755