13
algorithm=ssw size=13 seed=1 index=0 energy=-37.5412228090481 entry_id=0 visits=2
Ar -0.05182664452117697 -0.06941982348002596 -1.070143506229044
Ar -1.059765894953587 0.2496072800193694 -0.7538664315113101
Ar -0.6859022716923231 -0.7963453303570101 -0.5745177358940653
Ar -0.07360142580618242 -0.1792225724484837 0.8659358223465051
Ar -0.6611384640228335 0.4857597263309161 -1.796092420269534
Ar -0.2435178986551393 0.4238407600849667 -0.03689363701098766
Ar -1.050875691052911 -0.2313112510303004 0.2907689987654391
Ar 0.3184580066889014 -0.5074015966218685 -0.1320330908953822
Ar 0.7141346729184185 0.5236663144505168 -0.5738041310546523
Ar -0.4060954362138226 -1.146047212557634 0.4350707172963566
Ar -0.962381105308569 -0.7021549723817678 1.297326180980162
Ar -0.2512195851453745 1.039655078877608 -0.9300333206446756
Ar 0.4703402121795379 0.6781481691178837 -1.684580119389095
13
algorithm=ssw size=13 seed=1 index=1 energy=-39.46750955568528 entry_id=1 visits=4
Ar -0.1497027394963144 0.2088498308940823 -0.7345631290794156
Ar -1.032360586802853 -0.04886112664098857 -0.1236962861348818
Ar -0.9499865424249329 -0.3896724382774776 -1.189620957793093
Ar 0.1884631254835271 -0.9987649523544316 0.120572280491683
Ar -1.11466663552315 0.699788892048415 -0.9504158850064923
Ar 0.7974524879830531 -0.2052299700967852 -0.364120436879417
Ar -0.8074592209491643 -1.103857337071616 -0.3499137182970543
Ar 0.07202536605206498 -0.8325195160700724 -0.9711911565404459
Ar 0.5301802856327129 0.8733951891877925 -0.1734007337277527
Ar -0.7283935500172031 -0.7306033380660896 0.7003678093739502
Ar -0.02566155567618292 0.05737684435656751 0.3518546919676631
Ar -0.5743965009419493 0.9543583370314459 -0.002104961734402627
Ar -0.1488854589044865 1.28451415506336 -0.9766301901505426
13
algorithm=ssw size=13 seed=1 index=2 energy=-43.89940496197687 entry_id=2 visits=6
Ar -0.3033376196972297 -0.01778544359868352 -0.3586816097501778
Ar -1.346767423825207 0.1527556999556919 -0.5879128193156583
Ar -0.5959108445969419 -0.13048065611395 -1.394092948351139
Ar 0.7400913377597208 -0.1883287162320011 -0.1294490676670124
Ar -0.5382403085580021 0.8909013633171924 -0.8967167658050021
Ar 0.4140941983650707 0.3036221042717774 -1.10189304731089
Ar -0.8941317250891534 -0.8907226184374669 -0.6022403611341919
Ar 0.1941415258433636 -0.7974823330714124 -0.9198966350098345
Ar -0.01076522711900693 0.09490682670939385 0.6767293963640618
Ar -0.06843602037645066 -0.9264758981013435 0.1793522974223448
Ar -1.020768850603541 -0.3391953630071403 0.3845304901322008
Ar -0.8008162582025605 0.7619100777683411 0.2025324825475327
Ar 0.287455690514986 0.8551495265439243 -0.1151240856327021
13
algorithm=ssw size=13 seed=1 index=3 energy=-34.99094812336056 entry_id=3 visits=1
Ar -0.3531891192521625 -1.318090598250494 -1.584725484934867
Ar 0.505609396272635 -1.470922557771103 0.01864640404035655
Ar -3.286106571695168 14.02855596631684 7.598324664272512
Ar -0.1620862729511942 -0.2699644765593214 -1.288464169397419
Ar -1.191761963542909 -0.7121336981999126 -1.188426731039144
Ar -0.800337295401379 -0.0048911731045639 -0.4125616907033312
Ar 0.6058646748533203 -1.85099113066403 -1.75951718447012
Ar 0.4777365814829903 -0.7719178706305166 -2.071879796077554
Ar 0.01759783855361217 -2.016543907489081 -0.8193399970217931
Ar 0.5815693419571737 -1.041275836154445 -1.002870762620769
Ar 1.128592388914487 -1.977962963671994 -0.7724150030658264
Ar -1.079872549623349 -1.793848221504879 -0.8925757046559776
Ar -0.3870079751547738 -1.03123896230599 -0.4870572178385918
13
algorithm=ssw size=13 seed=1 index=4 energy=-39.19767707857198 entry_id=4 visits=2
Ar -0.9912868905520721 0.392985037240013 0.0255679138495336
Ar 0.1722223561924545 0.3496272241807433 -1.398134235486099
Ar 0.3382144974906655 -0.8678880052986689 -0.03040132091803133
Ar -1.327395706066061 -0.4259961689155568 0.7005346879985794
Ar 0.8388247529957984 0.04311205434116699 0.3561740928211217
Ar -0.02556264416710243 -0.7018297193690831 -1.068823950917603
Ar -0.7406938996862541 -0.675806903435769 -0.2098854186399331
Ar -0.2350323317602902 -0.1897486565602392 0.6670580581657778
Ar -0.4759773140523653 1.041600413600329 -0.761305943155726
Ar -0.8544794163387979 0.03726052878778203 -1.047237734744686
Ar -5.539491735813729e-05 0.148611426047284 -0.3413765306385039
Ar 0.9359894533342139 -0.2284084855224756 -0.7510119829238678
Ar -1.578158988057637 0.845255824908838 -0.8040203089209252
13
algorithm=ssw size=13 seed=1 index=5 energy=-34.79777363756228 entry_id=5 visits=1
Ar 1.314996610481046 0.895199945225058 -0.2711048382247817
Ar 0.4043532698351034 1.339415399148407 -0.7269499176282621
Ar -0.1105484954491276 1.95845515602085 0.06268799039377286
Ar -13.24858246328352 -10.35870493227749 -3.990018851691987
Ar 0.3612203281118568 0.9951557101715537 0.3313483939017207
Ar 0.9988285176915457 1.896886810795511 0.04330781615033118
Ar 1.038722297861278 0.6014363103203387 -1.301154656401269
Ar 0.480471223435289 1.848598037962395 1.024578626350046
Ar 0.617405815990021 -0.7654104518990347 -0.07554829560437652
Ar 1.426128311190522 -0.1643447325719829 -0.5623882799181361
Ar 0.3973198280274493 0.250987214937588 -0.4685674446265255
Ar 1.033218481421372 0.1208193420826416 0.4594381681001925
Ar 1.343074749104725 1.150280760089943 0.8115086156878135
13
algorithm=ssw size=13 seed=1 index=6 energy=-40.17718771833461 entry_id=6 visits=3
Ar -0.6616514560025176 -0.1538105373467653 0.4690871601629889
Ar 0.8547455857568681 0.4729740696718448 -0.3494081980122915
Ar -0.4549459305737255 -0.3371458702028302 -1.354199863013731
Ar -1.693565976361501 -0.2183316672586551 0.0682813198689413
Ar 0.09552646187280543 -1.186480961137326 -0.9054205131754004
Ar -0.0003365440993315034 0.6353679166741424 -1.045894912682777
Ar -0.9317238555733606 0.2710529407532096 -0.564980582297698
Ar -0.8844314701800627 -0.8313714220907241 -0.4262350489775705
Ar 0.4428054042012362 0.0464776759304239 0.6230903880872246
Ar -0.1643631126912416 0.7757713767403946 0.05089813867116457
Ar 0.0329847996350188 -0.2430262022854966 -0.3547349150763998
Ar 0.6665432384817385 -0.2445790977596443 -1.238522797928981
Ar -1.244978670050845 0.7818763483155937 0.3651771508627806
13
algorithm=ssw size=13 seed=1 index=7 energy=-31.61333241948983 entry_id=7 visits=1
Ar -1.446797845394125 0.2546175347246927 -0.830622359365719
Ar -2.763176345857063 -0.8192804791947578 -0.189581243414105
Ar 8.903165918832062 2.086573291820407 3.434948524988134
Ar -0.9975650955393728 0.3227355175387061 -1.847636751825179
Ar 8.205186140035133 1.925263537546196 2.570818517211109
Ar -2.619007009257434 -1.06945271707879 -1.275644041414375
Ar -1.807892451131644 -0.4224963168892855 -1.67893440512637
Ar -2.052948504645011 0.6639944079551551 -1.671085175759193
Ar -2.03982343435955 -0.005037965866896099 0.08074511255121272
Ar -1.741267427914746 -0.797052059805917 -0.6373403236623401
Ar -2.520681304030034 -0.01964923244633437 -0.9241879293883726
Ar -2.251644669859214 -1.770449482112601 -0.4866270656078068
Ar -0.810939496463695 -0.5809914661866811 -1.207715532698725
13
algorithm=ssw size=13 seed=1 index=8 energy=-34.79777362614501 entry_id=8 visits=1
Ar -0.2344831463866137 1.280037208219957 -1.909327754834878
Ar -0.3901157242245172 0.2249799499757266 -1.510858421600184
Ar 0.362333971181143 0.4383615263615955 -2.303333832894531
Ar -0.8860679352435555 1.976096439203792 -1.367880324603666
Ar -0.7467220212670889 0.5126832118091887 -2.519559072595432
Ar -0.5840416109428455 2.037893030763438 -0.3006918816511303
Ar 0.6088921492571018 -0.2606766362584279 -1.464949157580969
Ar 0.3865816723812227 -12.61260724664536 12.10188007014653
Ar -0.4618328597178448 1.069149195751016 -0.8200697144787659
Ar 0.2042289079569522 1.904031038303162 -1.099345822136333
Ar 0.5311512463576473 0.832479748328278 -1.256438975854806
Ar -1.245983241348858 0.9398021678161542 -1.600287699512122
Ar -1.487332933587977 1.426544936376409 -0.6120000859100228
13
algorithm=ssw size=13 seed=1 index=9 energy=-41.04458337424514 entry_id=9 visits=3
Ar -1.299488853924727 -0.7628060190855273 -0.4027450389002134
Ar 0.5132640199173827 -0.462882260569449 -0.5260926908033153
Ar -0.2581547751957848 -1.154535629726267 -0.07912857685950192
Ar -1.133075323098439 0.1590540836131855 -1.03523454557675
Ar 1.069859555127955 0.4066063025610741 -0.9428545652379625
Ar -0.4813764449190886 0.5623392144712798 0.6433887150502968
Ar -0.6360587607604243 0.9594493901325837 -0.4057420485684889
Ar -0.4660866242426922 -0.1016812130735503 -0.2096186351367144
Ar -0.4181388114488924 -0.7167532895166109 -1.111137411276937
Ar 0.2534929700633368 -0.3335466047689135 0.5636655981370483
Ar -0.02793191174314545 0.3357698700867111 -1.113749891504571
Ar 0.3778657848146458 0.5785131837230659 -0.0878274791456317
Ar -1.437562350175075 0.2992475421565431 0.04421389631140619
13
algorithm=ssw size=13 seed=1 index=10 energy=-35.87150681957792 entry_id=10 visits=1
Ar -0.7792741561540869 2.313790091592494 0.09068500473275003
Ar -1.463756566022274 1.141389263242432 1.306515332359612
Ar -0.5833212793164414 1.759138555530912 1.030213429526285
Ar -0.1533573822420499 1.35455289030651 0.064967239534792
Ar -2.358128136608653 0.4785963293779574 1.346898036106741
Ar -0.7922485223021866 0.4419862024827294 -0.2341101445161961
Ar -1.885125027167504 0.7343416358316858 -0.4213589752344849
Ar -1.229773761334073 1.324736347296643 0.2305633787529262
Ar -1.632715479807225 2.138429685313347 0.8338942421235447
Ar -0.5675398216215976 0.6621597909284863 0.8412508981612169
Ar -2.270725580427023 1.231935598375289 0.5300394259045778
Ar -1.586190437089391 0.322118319936382 0.5600529534166228
Ar 11.35876462450728 -14.13440014021115 -10.84247349437981
13
algorithm=ssw size=13 seed=1 index=11 energy=-35.81630506034976 entry_id=11 visits=2
Ar 0.1940610952031825 -0.5388685028870364 0.7055902776169202
Ar -0.8874506756041718 0.3495524524849986 -0.4872357391735118
Ar -0.6699990118962336 -0.6747947913111646 -0.03153890622402638
Ar 0.4236910798478391 0.5543223848267006 0.7607745899151852
Ar -0.8596550671494756 1.413701107142929 -0.8235427636161873
Ar 0.942678447690073 0.08475981858065465 -0.9258918046970993
Ar 0.8359673595320938 0.922023322409266 -0.2065143982808147
Ar 0.122186741018294 0.06446056739251237 -0.1989355411858406
Ar -0.6311459166783904 0.2310444798800436 0.6070925690100405
Ar -4.357240777638709 -4.424589920357834 -3.282271933535498
Ar -0.2323469325988895 1.096095985074259 0.03788912348590386
Ar 0.04820432262456788 0.7902196834999582 -1.006129014228879
Ar 1.127657810065083 -0.0991520167311551 0.1878508674023641
13
algorithm=ssw size=13 seed=1 index=12 energy=-39.22674551545533 entry_id=12 visits=2
Ar 0.1399451056206944 0.5103945982228641 0.5243438052688557
Ar 0.3433765480211861 -0.2473228803591899 -1.139348693320011
Ar 0.7932434041253558 0.5098270192771232 -0.4096797354261299
Ar -0.6214757090515322 -0.3056578786055886 0.4044700050030069
Ar -0.3071173306810036 -0.9777739419763003 -1.67715607756455
Ar -1.107684430151347 0.9395867729845218 -0.8343357040335758
Ar -1.334359572057252 -0.06047683959733008 -0.4125935644076701
Ar -0.2861353424809867 0.3197738700668518 -0.4574801386198522
Ar 0.3961172226795242 -0.4507084430286935 -0.03198487541367423
Ar 0.2575574232758979 -0.4531870378595253 1.072363589155643
Ar -0.4985332982410003 -0.7660881822869428 -0.6027157202455073
Ar -0.7596714125642956 -0.0004615818957444918 -1.382997987359393
Ar -0.9586541340800014 0.7508690950623231 0.2842524234514527
13
algorithm=ssw size=13 seed=1 index=13 energy=-41.04458334228254 entry_id=13 visits=4
Ar -0.3744638005506883 -0.3211102207108689 -1.437307070163818
Ar -0.08984706542456825 0.02112964064934911 -0.4517211006733268
Ar 0.3092205600219895 -0.9431559981669005 -0.7339986855723764
Ar 0.1238823971402452 0.3512847419437828 0.5679927484369423
Ar -0.7893955012532607 -0.8136247706704122 -0.5115482831066449
Ar 0.5675249992259253 0.8711505911945444 -0.3322696795841359
Ar -0.03579970999928439 -0.7441060820841575 0.3260044547702236
Ar 0.8873379805539379 -0.2081196583846058 -0.04987184821945513
Ar -0.2077551664054283 0.8015368233752452 -1.190529112634016
Ar -0.8960164258152509 -0.02390313980094087 0.289132862007995
Ar -0.5405244770758719 0.9592224900195415 -0.1196942324946094
Ar -1.102966523695726 0.2446205942627591 -0.7884522391516249
Ar -1.794588792306426 -0.4261504416248018 -0.2306004871262323
13
algorithm=ssw size=13 seed=1 index=14 energy=-37.60595639166878 entry_id=14 visits=2
Ar -0.5973300359893015 -0.9612450543700899 0.1076150407833564
Ar -0.7085985482201737 0.1100520098410849 0.01386880936373696
Ar 0.2082802207413585 -0.293076692866495 -0.3931384425893942
Ar -0.8070058112705886 1.197977015705797 -0.004407943649766479
Ar 0.03638962159877183 -0.2557396054733132 0.724353296285133
Ar -1.461665631659828 0.5285758177142694 -0.6392562947718614
Ar 0.2000786826076139 0.7024735782416708 0.1440185996261879
Ar -0.3259031944802386 0.627687493913858 -0.8547156064489838
Ar -1.629409500974793 -0.4534445365893582 -0.04452827115773883
Ar -0.5777358622429605 0.6582004331879918 0.9558467192961013
Ar -1.593105111882643 0.5459896828090378 0.4841885502085768
Ar -1.071859923168661 -0.3524471086063389 0.9345921698018423
Ar 4.384473569356882 -2.286228463505562 -6.091299300258968
13
algorithm=ssw size=13 seed=1 index=15 energy=-40.96700188693671 entry_id=15 visits=3
Ar 0.4254630395694746 0.4740728253339193 0.1794619311837568
Ar -0.2640799372838822 -0.9715788792449799 -0.705282218019321
Ar 0.6454152119190243 -0.3162365068813698 -0.5962168200296686
Ar -0.6609825953202043 0.2921728683741004 0.5571100195813583
Ar -1.113966392419811 -0.3549945955247693 -1.106790342892479
Ar 0.3738414405847663 0.7246742232424684 -0.9476783799068779
Ar -0.7401912916250285 0.7003290583220605 -1.269343484932427
Ar -0.357345491657441 0.09478852422895753 -0.4598244643274775
Ar 0.02238213964241951 -0.5818032884930391 0.3065365214866817
Ar 0.2240861918281763 0.05637313464289673 1.194402356573685
Ar -1.06288874197154 -0.6023249650123376 -0.002333632208453487
Ar -0.05723103023505605 -0.1779881708394607 -1.474150023105274
Ar -1.377894068615681 0.4312903418559457 -0.3387541369148153
13
algorithm=ssw size=13 seed=1 index=16 energy=-43.8994049378676 entry_id=16 visits=4
Ar -0.4847978477751702 0.5208735039977671 0.5618008025108892
Ar 0.3100673587825082 0.8552507560868514 -0.1800337302286829
Ar -0.7917291800470609 0.9433218788593803 -0.4487684595162282
Ar 0.1850518879547452 -0.9788955596352529 -0.2685861952989582
Ar -0.0446051209270329 0.5771113553006818 -1.22443454607628
Ar -1.330732222532892 0.03608047150768563 -0.02411964600116894
Ar -0.9167440231058933 -0.8908159671353297 -0.5373481851670797
Ar -0.3033348422062719 -0.01778490071934575 -0.3586823251656088
Ar 0.4520027750134372 -0.1064197515925147 0.4107202957924936
Ar -0.5620714734635462 -0.612697437010012 0.5070628979644004
Ar 0.724059542996189 -0.07166149581365869 -0.6932369876850716
Ar -1.058680143803251 0.07086204019785509 -1.128075885850653
Ar -0.1218782364692027 -0.5564503240380663 -1.279160708788668
13
algorithm=ssw size=13 seed=1 index=17 energy=-34.79777364704837 entry_id=17 visits=1
Ar -0.1938831702442879 -1.182767277805758 0.6180276489135964
Ar -0.5214106143260864 -0.6291521807368958 -0.3140430254113599
Ar -1.639754165475856 -0.6469775197523331 -0.3360978969454948
Ar 8.192279179082393 11.32789793968752 -7.609158001370329
Ar -1.034176490312418 -1.337133603543611 -0.9946688582271004
Ar -1.080838246278112 -0.5151187391071814 0.6181512968996152
Ar -2.017962160391928 -1.165667522684437 0.5833580080263381
Ar -1.102422245546436 -1.518993342190084 0.09431469933850721
Ar 0.5566355491476825 -0.8249944258413193 -0.1257641295507597
Ar -1.123738517691042 -1.44944807126639 1.204547668889213
Ar -0.1270521747733667 -1.666656769607938 -0.402367100661494
Ar -2.082775059777794 -0.05825383728502707 0.5177254320878507
Ar -1.768293408998617 -0.5639600798623859 1.483111584499308
13
algorithm=ssw size=13 seed=1 index=18 energy=-35.81630507107114 entry_id=18 visits=1
Ar -1.877928134153707 -0.1149250649975296 -1.751511540235204
Ar -2.159007775385835 -1.169420170440986 -1.948837016281716
Ar -1.303761619057984 -0.9377163271986 -1.225432076977419
Ar -1.042515906428944 -0.5121394068434623 -3.339280870123897
Ar 10.38525453806742 5.709512095015616 23.61892500983844
Ar -0.7774265997269122 -0.02627571736490184 -1.603704337521492
Ar -0.2626839316630703 -0.2376759491331221 -2.568673754519478
Ar -1.188510192512531 -0.7995309783642292 -2.300122695937384
Ar -2.072653693373606 -0.4338449322260301 -2.818128500680721
Ar -1.243050786759909 0.2821417986486758 -2.570417262964659
Ar -1.741746559965387 0.3288274705361948 -3.563181926906315
Ar -0.2758885915664294 -1.01582244925914 -1.745428888610265
Ar -0.3834722730563495 -1.304355798366466 -2.847068812589852
13
algorithm=ssw size=13 seed=1 index=19 energy=-40.17718773524849 entry_id=19 visits=3
Ar -1.018530997989234 0.3608493187932086 -1.539891294945395
Ar 0.02128307284708512 -0.19464894916508 -0.193738603111569
Ar -0.06687823544264244 -0.8555856310972666 0.6738222073790449
Ar -0.1887391404992388 0.869787016325461 0.07691776303712353
Ar -0.8851395214838317 -0.8004823042250403 -0.1283428283045275
Ar 0.8185541903969287 0.5443625259471466 -0.2725091159003411
Ar -0.7123623078141271 0.04190776584734994 0.6135198831768217
Ar 0.4005191636747794 0.1932978310189229 0.7486811719360861
Ar 0.6746841254737498 -0.2503144309027152 -1.075711129304301
Ar -0.9626460816052306 0.2645397811889439 -0.4390433636504494
Ar -0.05840161183326178 0.5766179598239646 -0.9938855907146641
Ar -0.4322664328154822 -0.4852729558268176 -1.131286441676565
Ar -1.533467748493948 -0.4962833577254356 -1.001395331432276
13
algorithm=ssw size=13 seed=1 index=20 energy=-40.24277388689703 entry_id=20 visits=3
Ar 0.08997029104383683 -0.7628257584536199 -1.270738033783814
Ar -0.085169492669516 -0.1543451893532697 0.4474182325431106
Ar -0.5006064516256717 -0.8136448429184826 -0.3407941688564247
Ar -0.1716334780912016 0.9134831061475045 0.1346361622152642
Ar -1.590297557376926 -0.6588531794671009 -0.4463535128323559
Ar 0.0172535962867514 0.1226423921733759 -0.6310413266771939
Ar -1.093685723102757 -0.6409425851833318 0.576906892192306
Ar 0.469233665116742 1.11383573004011 -0.7471646213244585
Ar 0.8198868106038371 0.3811181261369604 0.06053760317267125
Ar -0.9712781740393176 0.2008654801846341 -0.1293126611069491
Ar 0.6097839843876881 -0.7053679339633119 -0.2424631204424838
Ar -0.8845644939813263 -0.1647570236224154 -1.176131319914103
Ar -0.6522845021370826 0.9375662482814996 -0.8983627986968474
13
algorithm=ssw size=13 seed=1 index=21 energy=-34.75614431241576 entry_id=21 visits=1
Ar 0.2460646644449065 -1.471343591099595 -0.9710459136211054
Ar 0.676846087080737 -0.4842984922704998 -1.308883417935951
Ar -0.78944381861555 -1.549245986554952 -1.371463412703047
Ar -0.4097286520731907 -0.5661426721715088 -1.078273712810065
Ar -1.093285961298762 -2.490702128801452 -1.865814953652825
Ar 0.04314233817542917 -1.084817594738936 -1.984109739934791
Ar -1.707223010399453 -1.544013601033689 -1.98799071443174
Ar -0.09626035777748085 0.009678826575583438 -1.97969801528826
Ar 0.107498537473016 0.4113477643129486 -0.9566036742226069
Ar -0.7307796663124071 -1.658393846196749 -2.505394370411511
Ar 0.8050790924551416 13.05436352846965 15.19515940181843
Ar -0.006104612764310742 -2.182911523772232 -1.819423248660637
Ar -0.9891961659734353 -0.6747461127164009 -2.029320901667009
13
algorithm=ssw size=13 seed=1 index=22 energy=-39.08065419423329 entry_id=22 visits=2
Ar -0.1143762569809344 0.3846410887528798 -0.9066592802851223
Ar -0.07095418105595828 -0.6492381517983927 -0.5712876412480362
Ar 0.7731652106881068 0.0398398211611295 -0.3203750375487553
Ar -0.794626789390927 0.9776174665136531 -0.2108893778778257
Ar -0.1378997012403539 -1.62278724361125 -0.05215955444113748
Ar -1.107233061583181 0.7287956022110534 -1.248418815533574
Ar -0.7211907269614136 -0.7714591968321233 0.3564492326204438
Ar 0.4059742284779096 -0.7474090545674918 0.41622262320891
Ar -0.1833057476185952 0.1698511012525682 0.2042435703689855
Ar -1.028392555789594 -0.08652036084738228 -0.4767180753907888
Ar -0.2677386583745153 1.46917518758509 -1.055118555962634
Ar -1.026111923294819 -1.20248396161216 -0.6219969522700123
Ar 0.3292986375392831 1.078752271796831 -0.1761548091519176
13
algorithm=ssw size=13 seed=1 index=23 energy=-39.04365615774314 entry_id=23 visits=2
Ar 0.08237014293138839 0.5511072784717006 -0.5336803659228625
Ar 0.1714111783923533 -0.1423179385041176 0.3144187816365671
Ar -0.6835106025985999 0.566820062722624 0.2594840487174826
Ar -0.3163399221502028 -0.00721748968858485 -1.446904007535279
Ar 0.0348997125215398 -0.9240341034285936 1.09365744084269
Ar 0.7289164343098434 0.3580530093517643 -1.406034760094608
Ar -0.1396879650369906 -1.163596106430467 0.01526148706281997
Ar -0.8646589267407935 -0.4863723994833463 0.5989853919905043
Ar -0.6364706965650384 -0.3065914659384705 -0.4526809019646183
Ar 0.4132341785648159 -0.4930744333691642 -0.7261810040453746
Ar -0.1473522567076666 1.087504009088378 -1.4696311111261
Ar -1.604025777331593 0.05873860653063443 -0.08476397550290013
Ar -0.9821770251740066 0.6697555406821173 -0.8247936975698488
13
algorithm=ssw size=13 seed=1 index=24 energy=-40.17718773324832 entry_id=24 visits=3
Ar -0.08432685913522951 0.6692736725929131 -0.3877039482879738
Ar 0.3793453160748166 0.1015932639806377 0.4386440925710259
Ar -0.7089821701610807 0.3504160839587478 0.4723050685558222
Ar -0.2989399329721907 -0.03572143812286932 -1.270681709134016
Ar -1.130961221817989 -0.7286029562144052 -0.9370514534850052
Ar 0.4810054616700136 0.7500009887513381 -1.333649221664688
Ar 0.5306259810514465 -0.9544182030026038 0.1424168825853328
Ar -0.3689702962406558 -0.6661617853657712 0.799563233634938
Ar -0.3298217700099547 -0.408495533584414 -0.2561629838632399
Ar 0.6524050787986601 -0.1246020701562107 -0.6402816166893631
Ar -0.6202074763514673 1.024025540704009 -1.28839451766398
Ar -1.327908146520277 -0.524684020656533 0.1661092693432389
Ar -1.116655489971254 0.3161510271192951 -0.5679757694130687
13
algorithm=ssw size=13 seed=1 index=25 energy=-41.04458337600678 entry_id=25 visits=3
Ar -0.794742281070708 0.6851947656510882 -0.5466015836551058
Ar -0.07499571876471046 0.5990670238673197 0.3197934995791886
Ar -1.061495955978249 0.05075271479708889 0.3401848151991922
Ar 0.5170307835083587 -0.4841857368145057 -1.05284047701503
Ar -0.4946519027535378 -1.048531376537619 -1.029706620368204
Ar -0.09722362571184187 1.519051138852629 -0.3068115831905985
Ar 0.7483793834553064 -0.1120078474234631 0.02277644938318714
Ar -0.120511236923453 -0.4582131284924972 0.7113615564428101
Ar -0.2610989651037948 -0.2493352786974012 -0.3400110683349368
Ar 0.311710625198829 0.5833179078595389 -0.7502947077973057
Ar -0.439056023501754 0.02542316653629594 -1.382215779310031
Ar -0.8890324166682173 -1.032482675090728 0.06162856749635259
Ar -1.287704191271554 -0.3092761045036855 -0.7101257419403973
13
algorithm=ssw size=13 seed=1 index=26 energy=-34.11827603566444 entry_id=26 visits=1
Ar -0.9304484648382898 2.900981030484464 -1.788595233796315
Ar -1.140405464365118 3.358853866008291 -0.8010829063435875
Ar -1.382850709113666 2.281449152334926 -1.008676879197279
Ar 2.923625538121703 -33.16333740415185 11.43160711033959
Ar 0.03304895937496986 1.273851346116621 -1.856604176247427
Ar -1.039650475958068 3.994584941959961 -1.723363709056613
Ar -0.2544863751420423 4.035964969902841 -0.9442022220116203
Ar -0.7164536429275863 2.537496820884973 -0.1601962373101749
Ar -0.1338598876493305 2.94551592760833 -1.001524723269456
Ar -0.03376414869880162 3.529615498007435 -1.931468158983476
Ar 0.02991725034603246 2.386717995264787 -1.939949066394725
Ar -0.352840440963704 1.877219401127359 -1.002167047767704
Ar -0.9452236637699462 1.809861024467605 -1.936639423469394
13
algorithm=ssw size=13 seed=1 index=27 energy=-34.40550560634297 entry_id=27 visits=1
Ar -0.2005741177251039 2.602903817574967 0.6284520321338233
Ar -0.7357024300261271 2.143727594253525 -0.2428493172326293
Ar -1.312749826198085 1.178233866590768 -0.06998056318463022
Ar 0.3064948137684965 1.28682994949371 0.6896691441833195
Ar -0.2239904559902773 1.167007677870344 -0.2777365931309099
Ar -0.5115949010136523 -18.29665340102625 -9.973022500826167
Ar -0.3430712214971565 0.9395741476712304 1.544668666242653
Ar -0.7213231367549696 1.634046884849226 0.7370183371528021
Ar 0.8426521088996988 2.25330041483843 0.8624019581691542
Ar -0.00467713403907438 1.986010557921011 1.524136551826273
Ar 0.3836560012018876 2.060194763728681 -0.1276998944668924
Ar -0.836506677239212 0.2649947207682617 -0.5046160051648573
Ar -0.5860045489695304 0.5486035754657571 0.5466955107880065
13
algorithm=ssw size=13 seed=1 index=28 energy=-40.18807133214872 entry_id=28 visits=3
Ar -0.2173563046730998 0.5131898371540909 -0.9735693458326881
Ar 0.4477109733770103 0.3994587560952947 -0.07842989426980466
Ar -0.6939836605948119 0.5565378515807202 0.02750738720363125
Ar 0.1163739245768091 -1.277190640715554 -0.871763218320174
Ar -0.997212813625904 -1.104167290392951 -0.6738418204961322
Ar 0.01716550064644457 0.9912412398013056 0.7595468169988399
Ar 0.5992268556446696 -0.2493068090122573 -1.005381328577096
Ar -0.1690115546130387 -0.1158600499022553 0.7299113392016163
Ar -0.2444510473806333 -0.3965977592651342 -0.3280161971963469
Ar -0.02512517280432354 1.381782111124058 -0.2963755353299643
Ar -0.4224703556604876 -0.4824718267467781 -1.426695296972745
Ar -1.162545534642223 -0.4396982336199328 0.2553872146581977
Ar -1.191712335835507 -0.008142616096590789 -0.7811427945781071
13
algorithm=ssw size=13 seed=1 index=29 energy=-41.01720054036702 entry_id=29 visits=3
Ar -1.104271904983459 -0.4675737628026022 -0.5400345193063699
Ar 0.6945391831642271 0.7145971416244907 -0.2640802019250117
Ar -1.028256235229023 0.2756536681757718 0.3176645746281914
Ar 0.5797652320919221 -0.03374449748997754 -1.105574675496425
Ar -0.07712660144565649 -0.8733719266644312 -0.7420925796373264
Ar 0.08157301348688793 0.3154699088532778 0.6370704183974043
Ar -0.04151929126302388 0.9118819022663534 -1.138591314355021
Ar 0.6555496237421127 -0.3920677887185163 -0.03507055392116083
Ar -0.221715644957702 0.1549545837879296 -0.3884084822781687
Ar -1.109231927198769 0.6346552027643005 -0.7777213203434232
Ar -0.5071146267549131 -0.08043699071825543 -1.416424525311595
Ar -0.3828177492306479 -0.6609477943466912 0.3171279628183752
Ar -1.482764597007315 -0.7302950767283602 0.4732725432186655
13
algorithm=ssw size=13 seed=1 index=30 energy=-34.86300307321012 entry_id=30 visits=1
Ar 1.150799193041448 0.6164913112472492 -0.6610407996539662
Ar 0.5942576464997478 2.134249832461967 0.8187656690290736
Ar 1.294095681279699 1.708048462687093 -0.9011501305711138
Ar 0.4259498048910831 1.028544328384994 1.007599424392323
Ar 0.2531512342891137 0.5343454087905781 0.008798379851230796
Ar 0.5352814031104183 2.298339012813091 -0.2977302796390742
Ar -0.2742945558456489 1.08745716518519 -1.696036617065945
Ar -0.1455085656025728 1.56302296235408 0.2188851908956639
Ar 0.9772277343693605 1.373471150316321 0.1130713126558038
Ar 0.1852877626633552 0.2702870191797581 -1.084269678130389
Ar -10.05266358464308 -15.1727139060567 0.229318778528481
Ar 0.2714352035421463 1.32754859455488 -0.7638425119846581
Ar 0.8415895168220432 0.9996832280834628 -1.655231411819365
13
algorithm=ssw size=13 seed=1 index=31 energy=-28.08494503654464 entry_id=31 visits=1
Ar -1.483682047565182 -3.274637504068519 -0.8541495257740812
Ar 3.35142042479532 5.394119803371188 -0.109934916972565
Ar -1.890579404478334 -2.797529031588265 0.07334953760513044
Ar 2.34604681420797 5.886477471325317 -0.07174363368058193
Ar -2.402912669197852 -3.897313021453389 -0.9371044788438487
Ar -2.809808604412884 -3.420203326514004 -0.009606521773840191
Ar 2.529959556611987 4.951318165605544 0.5167349354180608
Ar -3.409346369165202 -3.410716860988101 -0.9532194789357288
Ar -1.806729738213511 -3.907636455047141 0.005464420796986586
Ar 3.21919345490859 4.282950591160443 -0.06023183264780403
Ar 2.466483902535052 4.908705892190313 -0.6047579556072681
Ar -2.488031255496478 -2.785105542094723 -0.8708593826421115
Ar -1.565405590114438 -2.161655611895203 -0.7868038404539505
13
algorithm=ssw size=13 seed=1 index=32 energy=-37.01993533372301 entry_id=32 visits=2
Ar -0.6678355317914259 -1.148236665847946 0.05850076870769563
Ar -0.2452353833602749 0.6125269268418497 -0.06833798284403049
Ar 0.1642222072206732 -0.419091297127995 -0.02796630061059283
Ar -0.7912829922863197 0.7779875225250912 -1.011623236011321
Ar -0.02434715113865062 -0.9146822911620339 0.9492196926469687
Ar 0.1088294682136449 0.07669916510077726 -1.008163578107291
Ar -0.7384763940380621 -0.1423947057062315 0.5761083025634675
Ar -0.09527194422011825 0.7312529077300205 -1.878120669896653
Ar 0.2519406392502223 1.169401328920395 -0.8994601410781101
Ar -0.8380416365473928 -0.2220888447838818 -0.5248969123689308
Ar 0.8360310297213717 0.4501698068922625 -0.2569274928268819
Ar -1.130345129617808 -1.061248922418922 1.069930170284999
Ar -0.7735787069913498 -0.1415203609610688 -1.641125293970843
13
algorithm=ssw size=13 seed=1 index=33 energy=-40.18807131396645 entry_id=33 visits=3
Ar -0.03539318575432432 -0.8418597435575366 0.4286536628315001
Ar -0.5243474280840399 0.04048416591912522 -0.04940042885920701
Ar 0.5895971281466595 -0.003751852403834911 0.05394342996025349
Ar -0.8508776053066746 -0.1617433233803593 -1.063088613545928
Ar -0.07648361901519743 0.1707659262152227 0.9351432618285536
Ar 0.1359544233463416 0.4094056199997188 -0.8647713734308954
Ar -0.9362660196635 -0.9519343431479628 -0.2436949423550427
Ar -0.5255249509912744 0.6806181719648889 -1.712984249993419
Ar -0.8305259151719683 0.902452088059558 -0.655172127698169
Ar 0.06125335937696625 -0.6800938122506371 -0.6682765993907888
Ar 0.02643378655736769 0.9666412168142247 0.1055064356261447
Ar -1.015029579752297 -0.4671691247802111 0.7889392360008545
Ar 0.03781808072634472 -0.2950404194497601 -1.717660364485387
13