13
algorithm=ssw size=13 seed=0 index=0 energy=-40.24277387226225 entry_id=0 visits=3
Ar 0.2837702479374758 0.7910485716600286 0.4354293396323209
Ar 0.02947776092506655 -0.2854625423196557 0.3281356249923748
Ar -0.4111658405742696 1.312817373307004 1.093085515774157
Ar -0.7855055780354386 0.4648051838683887 0.4580637202180435
Ar -0.4699895461058292 1.413244362294206 -0.04833536138943918
Ar -0.8240752505526546 -0.5298894027642008 0.9869736521622438
Ar 0.6538895350690008 1.033064854445939 1.436933457689025
Ar 0.911812149178141 0.04108424933303263 0.9213342509601887
Ar -0.2056004589937673 0.4115037143348182 -0.4939969423860892
Ar 0.8762880823660903 0.1680866771246143 -0.2314266855212784
Ar 0.5487669334948537 1.222418070624654 -0.5361321177781615
Ar 0.2413825627226444 -0.7895108357491671 1.289305351840711
Ar -0.1189930629255695 0.255381794017317 1.318548031820298
13
algorithm=ssw size=13 seed=0 index=1 energy=-41.01720050060806 entry_id=1 visits=3
Ar -0.2139214712929011 1.417075796563411 0.6321687880034288
Ar 0.164303194437622 0.4399303174565275 0.3757662682950944
Ar -0.8412069313063039 0.4824677149247612 0.7959711207816161
Ar -0.5686094564754941 -0.2853200221748922 0.01447932045543255
Ar -0.6268267315642324 0.8112785538943672 -0.261075068355283
Ar 0.5141976268668651 -0.5738673389547142 0.1706157371969684
Ar -0.8327974001286873 1.299513221825166 1.551908065338605
Ar 0.07797123505642418 0.66968906307021 1.438398866135673
Ar 0.2321981794896361 0.1408269344963277 -0.6606297252584552
Ar 0.890320642818223 1.120293489109796 0.7992925358638201
Ar 1.169958991654917 0.3318729307251394 -0.005223220722980142
Ar 0.9126690106098319 0.01640424817454592 1.049752771060217
Ar -0.1481993556600156 -0.3615728389337575 1.056492379220271
13
algorithm=ssw size=13 seed=0 index=2 energy=-40.96700192822636 entry_id=2 visits=3
Ar -0.3721341569994364 1.307124636618763 0.8496505719265298
Ar -0.06007822497363732 0.3153926301537374 0.5591048756267314
Ar 0.440368541497255 0.7675256320502363 1.418283484570961
Ar 0.2459112780200641 -0.3476391867180841 1.371567830686898
Ar -0.6181545479695221 0.3725196460929242 1.48359804559697
Ar 0.3245284239746372 -0.670668524848871 0.2887635969554243
Ar 0.01849319902989801 1.995912979546239 0.0634554839506427
Ar 0.6423442971876779 1.127370761715863 0.3678856689805405
Ar -0.6917054181568062 -0.536781418050257 0.7674818863737131
Ar -0.2912903302566648 0.9750254407379743 -0.263546052740658
Ar -0.487812490267487 -0.1629446029445212 -0.3113155887573546
Ar 0.5674833628099341 0.2453396321863784 -0.3321389476851754
Ar 1.01210360060982 0.1204144436358205 0.6951269825292986
13
algorithm=ssw size=13 seed=0 index=3 energy=-40.18807133047996 entry_id=3 visits=2
Ar 0.6106865512634957 0.6567259383463322 1.209703832112156
Ar 0.03720838877887033 0.0397053268768061 0.5274386350210113
Ar 1.119015547232313 0.05932005941148508 0.3803716213160468
Ar 0.4959821466467906 -0.8545840581296358 0.09031195006145436
Ar -0.09753060226288929 1.262172852754583 1.817676131512906
Ar -0.526374629836849 -0.4716048023207581 -0.2521866541947652
Ar 0.4581728425606152 1.72825733753733 0.9555653179277918
Ar 0.5165204930984725 0.9687566476763807 0.1371792327635786
Ar -0.3967398793531846 0.2218952030038266 1.518500589281246
Ar -0.3910422533646714 1.036582567425918 0.7719439280643736
Ar -1.045391983553443 0.1438412103776072 0.5749531583543799
Ar -0.4826066817345085 0.645841694113623 -0.2573562962776861
Ar 0.4321575950321695 0.07168209310287284 -0.5161836079245991
13
algorithm=ssw size=13 seed=0 index=4 energy=-43.89940496225945 entry_id=4 visits=9
Ar 0.5438241780713807 1.207225240831751 1.099762759354862
Ar 0.0561586887307147 0.4237391213286859 0.5352240627742064
Ar 0.4239608768096446 1.269892634510657 -0.02967915615586188
Ar 0.4591935968869437 0.2119465005132447 -0.4461426298019633
Ar 1.129543174574698 0.5026066832709852 0.4256851661862803
Ar -0.4315080663102868 -0.3597490719985333 -0.02931377578255007
Ar -0.3468771923091148 0.6355296570934634 1.516591548958096
Ar -0.4885179534031758 1.352043551323788 0.6445368616494574
Ar 0.6008345392970433 -0.504568722169527 0.4259112322731564
Ar 0.6531396463118245 0.1105458945658691 1.381333417528329
Ar -0.3116449907457529 -0.4224178138176166 1.100128117275092
Ar -1.017226354392565 0.3448692840914171 0.6447637579739598
Ar -0.5408226090152071 0.7369291106327769 -0.3108835242177894
13
algorithm=ssw size=13 seed=0 index=5 energy=-37.60595637523718 entry_id=5 visits=1
Ar -0.4779574488660011 0.2756768276427101 1.995439248323544
Ar -0.5193318751176963 1.243701238307442 1.490650318023332
Ar -1.153202155809703 1.103877079470515 2.369432771168465
Ar -0.6389055740602831 2.092235081708466 2.16836416272737
Ar -0.03654203330924116 1.192764476912491 2.475152110323136
Ar -0.5232952289170647 2.231705550882567 1.051716646348574
Ar -0.3583154321605622 0.3700334676810696 0.8745166769086248
Ar -1.376095897959861 0.5928193580873238 1.385128317982039
Ar 0.3541863798859434 1.874860674634138 1.670101124221246
Ar 0.4536710263784995 0.7521681503246066 1.563248933909731
Ar 0.1687422752650872 1.38292518636611 0.6684530826685263
Ar 6.315150603231544 -9.347571915505284 -12.24897583805163
Ar -1.478047104052512 1.743396893666623 1.494690283456938
13
algorithm=ssw size=13 seed=0 index=6 energy=-34.59006299505743 entry_id=6 visits=1
Ar 1.677824145681431 1.450899922902102 2.654416399924907
Ar 0.7171810279059569 1.492175129975776 2.124523519377803
Ar 1.423966288176444 2.306959265241484 1.965056747965974
Ar 0.5882406475737718 0.7828447501051674 1.322028681781379
Ar 1.608863842656813 1.266865608492606 1.54474303986833
Ar -0.238837304495492 1.562500917201939 1.627332749747204
Ar 0.7226165295907778 1.102111366247216 3.142689189647933
Ar 0.88494867463797 2.199288409764971 2.947871107650734
Ar 1.534538329205054 0.1875394197933887 1.276522728167684
Ar 1.172226653216215 0.516768924446571 2.277897112402074
Ar -9.52925495929111 -11.60152855731762 -18.70678931042235
Ar -0.1330535878277603 1.748412119664555 2.755112782727796
Ar 0.3007972474766901 2.493754793660255 2.026513089174223
13
algorithm=ssw size=13 seed=0 index=7 energy=-40.24277387428 entry_id=7 visits=3
Ar 0.3587854709170125 1.287082424898666 0.09854612778665817
Ar -0.2073060937376261 0.6664668821163269 0.7966586706969123
Ar 0.7019984301224635 1.113425442984567 1.193205745992829
Ar -0.1739173507694136 0.8386964307726649 1.878067750073093
Ar 0.8772390201678649 0.602741930024254 -0.6346869933397571
Ar -0.6747019133448406 -0.08878039202926545 1.42947420077584
Ar 0.625368603808818 -0.4673650555149089 -0.3424128386457664
Ar 0.7788476242739598 0.3111706749495489 0.4274474588435324
Ar -0.7810012084958385 1.182071122756396 0.01974985684125006
Ar -0.1284732933832532 0.3379582211478382 -0.2592394666294255
Ar -1.034436079860518 0.1086671961295474 0.3580232138273813
Ar -0.05904375277327517 -0.4144173246640027 0.5517105260264452
Ar 0.4466980775831478 0.03087451660624162 1.441373585764633
13
algorithm=ssw size=13 seed=0 index=8 energy=-40.11389758553041 entry_id=8 visits=2
Ar 0.6156542330221467 1.105528172432931 1.668131087407782
Ar -0.4343352486862864 0.145159388105978 0.5666948377577897
Ar 0.1192890727294899 0.08137113675929405 1.517093178850488
Ar -0.3969623107361286 -0.8349068161308673 1.056625207059248
Ar 0.3954784365371135 1.722735981431379 0.7203546913639128
Ar -0.3112542054678991 -0.7228640249512234 -0.08694936825770254
Ar 0.7857167922176292 1.223948590095475 -0.2296972760417131
Ar 0.557746263536669 0.6421865177781931 0.6762051480885016
Ar -0.3717719804172837 1.049552108276252 1.176046813849895
Ar -0.2742569885999406 1.102257881210639 0.06012199370904782
Ar -0.7873148868455506 0.2411808262025966 -0.4712143067041772
Ar 0.3028358307175626 0.1992738679540151 -0.2918435827544808
Ar 0.5292325265007987 -0.4468315589872641 0.5963494136849308
13
algorithm=ssw size=13 seed=0 index=9 energy=-35.72540489175434 entry_id=9 visits=1
Ar 1.205283267919894 -1.006986384247275 1.379726270313662
Ar 0.6938809012835391 0.2752638817912175 0.2347496504033573
Ar 1.461008224125575 -0.4965707213975102 0.3996837810734041
Ar 1.520923256830258 0.2272033731645297 -0.4851303329562121
Ar 0.3022242572802294 -0.4654011442442932 1.820522768017732
Ar 1.090729969411468 1.228618205211199 -0.1235815714188385
Ar -9.633006607100883 3.097775695365432 -1.12749890181433
Ar 1.083841083869073 0.08376644945537697 1.268926402455592
Ar 0.3854028758867924 -0.642020712536275 0.7297921617759848
Ar 0.0222712386709399 0.3662911275024844 1.101968015135896
Ar 0.009914872450873311 1.133408295275237 0.2524176223443464
Ar 0.852712737170623 1.118151383478561 0.9684713622086111
Ar 1.734871456709446 0.5890926213589656 0.5378706104747306
13
algorithm=ssw size=13 seed=0 index=10 energy=-35.81630506604994 entry_id=10 visits=1
Ar 1.249305314352486 0.5899938713728098 -0.01930910952975845
Ar 2.141548783316297 0.9737869331587397 -0.5747515659145787
Ar 1.485213519192367 0.1975160668829873 -1.034746576129965
Ar 1.956923031034512 0.9862771588748244 -1.655424407323092
Ar 1.144995824190251 1.269825379789707 -0.9012289322972868
Ar 3.116346164468637 -0.5131058295724437 -0.4585316840219376
Ar 2.201222000580961 0.7887655610913782 0.5239639423943792
Ar 2.136541647757884 -0.0691458614297407 -0.1768486167623866
Ar -24.7191629752798 -2.748654051263376 12.44001181493714
Ar 1.600632815780866 1.646074835666835 0.09066769286392803
Ar 2.743988071006769 1.636212259685918 0.05798343606111975
Ar 3.06457103072598 0.5640581833694458 -0.1698885840449808
Ar 2.607932307378912 0.1869875625502886 -1.163979572216191
13
algorithm=ssw size=13 seed=0 index=11 energy=-35.81630506480876 entry_id=11 visits=1
Ar -1.418415104041014 -0.05221915129696601 -1.086899567723626
Ar -2.040339299322454 0.4640131696435407 -0.3169864644093883
Ar -0.9411556372707524 0.333061691984917 -0.1540280774374793
Ar -1.476628363537053 1.260868166656884 0.1673504591445352
Ar -1.309160711855421 1.041025738284394 -0.9313064531489759
Ar 22.94222193076346 1.621918370182008 13.17579115120886
Ar -2.464423267482312 -0.3855630858508934 -0.8481483159725968
Ar -1.619599866797532 -0.5495758424362853 -0.1155693257605828
Ar -2.273579359232973 1.491534562390217 -0.6201270508869545
Ar -2.266431781516154 0.6288449118137683 -1.368405454879525
Ar -2.113453983275572 -0.337081866008159 -1.906800034502881
Ar -2.614818975355543 -0.2569040881720926 0.2765935876600426
Ar -1.674158046571199 0.2486694929859432 0.6864533847240182
13
algorithm=ssw size=13 seed=0 index=12 energy=-37.60595639684743 entry_id=12 visits=2
Ar 0.5407892940276512 -0.6495095695303873 1.436766123204543
Ar 1.330506037737412 -0.1088806691912251 1.939670658149082
Ar 0.6349698504374008 0.4727485595069568 1.330133709772436
Ar 1.084747324456673 0.9008406403632648 2.276809261191221
Ar 0.3384762173872433 0.05285402801218887 2.337858139132788
Ar 2.131929053159646 0.484575594802952 2.385913958593202
Ar -15.76778501971036 5.678412033419505 -15.55141850284016
Ar 1.404172488245552 -0.2080955322339081 0.854159208848669
Ar 1.286621304421501 0.06035931958016823 3.00657001618678
Ar 1.613959316402511 -1.076119645145871 1.548599856088925
Ar 2.074921066737815 -0.6373909824204752 2.51877712565035
Ar 2.329338227163102 -0.2007916768040479 1.506668751523623
Ar 1.727412374039875 0.7395899698174151 1.367409532513625
13
algorithm=ssw size=13 seed=0 index=13 energy=-35.88138273577621 entry_id=13 visits=1
Ar -0.5642352242066585 2.937586472070053 0.04247527146193761
Ar -0.7228106974668826 2.154260617470996 0.8027464945177025
Ar -1.200921491647821 2.012653609880963 -0.1734388001957625
Ar -0.9459310478265168 1.122741765466537 0.4927508831129075
Ar -1.144901015242866 3.847233303740752 0.3627553359261814
Ar -1.094354474625278 1.463298813928546 1.571327566689698
Ar -1.725483158155483 3.578925867227663 1.293463026130753
Ar -1.567128690033625 2.8305654538024 0.4897433870977163
Ar 14.119848402124 -24.27831181290509 -3.219599367309231
Ar -0.696205910680722 3.191032467135738 1.139843336473732
Ar -0.4416498930559579 2.350131236532395 1.851224821642321
Ar -1.493613003102858 2.512391977439669 1.546071051901362
Ar -1.7925562615709 1.786082298389491 0.7585548305649857
13
algorithm=ssw size=13 seed=0 index=14 energy=-35.94514777967125 entry_id=14 visits=1
Ar 1.033886481660551 0.9575987493829226 -0.890461591877055
Ar 1.155009861839997 1.446906271996244 -1.893756859211198
Ar -0.007044847040456949 0.6387988593504365 -0.7511987802849095
Ar 0.2014465571816417 1.571555109288524 -1.347890515097625
Ar 0.3856590945115851 1.581535553118664 -0.2545716412985861
Ar 0.2064976169127746 1.403594109829905 -2.462264669497032
Ar 0.8232540502276765 -0.1157183204858672 -0.997042665199244
Ar 1.54574907201693 0.4193607149437427 -1.70251859840074
Ar 1.145578258689472 2.047322527681712 -0.9582580657537745
Ar 2.013549199599395 1.338840273894726 -1.210876943637571
Ar -9.269207436497663 -7.036408813854206 23.87597188469754
Ar 1.052810106175978 0.678560409908433 -2.683389256211072
Ar 0.4428695192271766 0.576646625121361 -1.765824460214796
13
algorithm=ssw size=13 seed=0 index=15 energy=-35.88138266060338 entry_id=15 visits=1
Ar -1.754099108054886 -0.7395111863454003 3.052759904844503
Ar -1.484704464591035 -0.7184855588409826 1.273748250458199
Ar -0.968337942217205 -0.6912497520405128 2.248110774055529
Ar -1.111565358128768 -1.370730790022641 0.470482432002608
Ar -0.9190976834451057 -1.609838714678478 1.568929776417858
Ar -2.144252838668262 -0.8896052226820257 0.4123956290050053
Ar -2.756739848105946 -0.8765174979768688 2.551552505190705
Ar -1.986875994117067 -0.2151255665533159 2.100606927093605
Ar -1.93855059605117 -1.74228851671 1.107279924305804
Ar -1.845210021449108 -1.350896593783553 2.133013890620015
Ar -2.585478307142377 -0.9028298138527943 1.444748019542057
Ar -2.22761101838695 0.0598226294524873 1.030834913471256
Ar 22.45258071486013 16.55584865421128 -12.43654510899399
13
algorithm=ssw size=13 seed=0 index=16 energy=-37.60595638063977 entry_id=16 visits=2
Ar 2.352570985648009 -1.330941808475083 3.092807215554537
Ar 2.041723614412546 -0.3292660480025982 2.830403607051275
Ar 3.040983187811877 -0.6414613990603297 2.517973710353438
Ar 2.42020144795866 0.06035742590908671 1.882483607702312
Ar 2.108465228716485 -1.020517689733038 2.001811504669284
Ar 1.80117815348279 0.7058063556105051 2.576712035033719
Ar -24.85329863055969 8.465251893444947 -27.04763446923058
Ar 2.805633267936608 -0.4297471662649338 3.60496209634747
Ar 1.323188913100534 -0.1672042659036583 2.039030784236812
Ar 1.718194749835707 -0.6694356245951738 3.804292123166124
Ar 1.082001928407277 0.04979429482146015 3.153029367011039
Ar 2.039410849003624 0.4029276307478808 3.641264579476185
Ar 2.849803838748136 0.413028471677068 2.860781676648007
13
algorithm=ssw size=13 seed=0 index=17 energy=-37.60595639898019 entry_id=17 visits=2
Ar 1.224576421097566 -1.107929453370502 1.919035520433416
Ar 1.675234314663582 -0.1701381926629073 2.212807344458832
Ar 0.5948218013884241 -0.177465472638247 2.050764931611313
Ar 1.0648836801828 0.4820443594086224 2.841875261464513
Ar 1.063886207480915 -0.6419913316871231 2.969410589650658
Ar 2.079168200632991 0.8135073888019383 2.463561716414192
Ar -18.755401186892 6.367700218030462 -18.97673694214422
Ar 1.318596928861184 -0.2536014132937719 1.1835149802305
Ar 2.004041075114007 -0.01433366805588187 3.230867872662782
Ar 2.264052613148437 -0.7682385606588544 1.531337976138649
Ar 2.745786190177664 -0.09234583511136532 2.342080001656268
Ar 2.235967588163686 0.3588574006921665 1.438636564023261
Ar 1.214443700485265 0.712526630721421 1.750762021421222
13
algorithm=ssw size=13 seed=0 index=18 energy=-37.60595640312739 entry_id=18 visits=2
Ar 2.84017311527341 0.6463051451355386 2.946531575892068
Ar 2.383609364969244 -0.3335789011927252 2.93178739883788
Ar 2.670234143503463 0.07070111242383309 3.905444644952591
Ar 1.755170537643346 -0.5857266865422891 3.789161282375787
Ar 1.766748918538245 0.4535625756488463 3.342561319090334
Ar 1.969303292841837 -1.343539105775771 2.975755168178207
Ar -28.41112634349334 10.43957813817824 -29.22975321812992
Ar 3.449913013475546 -0.2814204255558793 3.163911842602276
Ar 1.322792836723494 -0.4421899549120799 2.753711247886356
Ar 3.059633613919162 -0.130335978312508 2.112929704796347
Ar 2.121839686969226 -0.8030624936449844 1.993756078585763
Ar 3.016716235365286 -1.155471640452558 2.589335010467171
Ar 2.785049118781298 -1.02622971482197 3.682785782488727
13
algorithm=ssw size=13 seed=0 index=19 energy=-37.60595639800396 entry_id=19 visits=2
Ar 1.687193148736875 0.7021583332230966 0.9589778963351255
Ar 0.7541077641880805 0.238993088669712 1.24823360395083
Ar 1.480343610501984 -0.3843135830564268 0.7212888009049754
Ar 0.8040778326632201 -0.818307008993383 1.518831262606462
Ar 1.620971828775785 -0.08972218615862491 1.804411267380217
Ar -0.1855962436660793 -0.2702751626565341 1.474508557361264
Ar -7.815148568776337 3.629092138366095 -7.055621685923512
Ar 0.9086171994657599 0.4319403390176692 0.1840465830530322
Ar 0.5658066075921485 -0.01748252340665631 2.281479202971279
Ar 0.6729415310184084 1.263803715531147 0.9135548752599419
Ar -0.02012575105735724 0.8190330268435403 1.730893762389752
Ar -0.1209895206367518 0.5024197208366965 0.6495588711956004
Ar 0.3778580957015112 -0.4987478280426173 0.5277548405360216
13
algorithm=ssw size=13 seed=0 index=20 energy=-37.60595639099695 entry_id=20 visits=2
Ar 1.857885420750162 -0.4134860194517586 2.057361360599391
Ar 2.505921567150617 -0.3492877316473456 1.194363137748533
Ar 1.43876376163899 -0.179824477921808 1.032928878151349
Ar 2.218872014611775 0.3751327360685982 0.428587578865309
Ar 2.097170186447419 0.5929423146248586 1.531964743188557
Ar 3.103275699385933 -0.3159333315321355 0.2802242877369531
Ar -28.73780110559063 10.20526279562235 -6.131939163880685
Ar 1.841048578940836 -1.21385895162831 1.258083916115481
Ar 3.151459659320992 0.5067221386445252 1.055233329170034
Ar 2.76425682030536 -1.121728985803813 1.905307612105264
Ar 3.563726680153942 -0.5530039592154933 1.285952783144447
Ar 2.869767568683835 -1.297985272790969 0.7928720491992534
Ar 2.055710682705254 -0.7263591847971744 0.2669773258643636
13
algorithm=ssw size=13 seed=0 index=21 energy=-37.60595638447639 entry_id=21 visits=2
Ar 5.038910733236801 -1.985563783317791 1.491192770616766
Ar 4.44543907191118 -1.093287494233375 1.348106902218093
Ar 4.777347899604519 -1.316195386062952 2.364842543089082
Ar 4.679399201101113 -0.2487481355113211 2.000502362542838
Ar 5.487215609798212 -0.9189877330634603 1.578700439572165
Ar 3.813118319024326 -0.2055292763277453 1.272881281923219
Ar -51.6971534637629 18.33324376403055 -10.32987859092211
Ar 3.971600869222572 -1.932689624428655 1.862387947732085
Ar 4.876491536094107 -0.2155357215526218 0.8870455117453852
Ar 4.151092349073351 -1.941271178840266 0.7455071647328905
Ar 4.050700577033 -0.8473262505246512 0.3721312230551781
Ar 3.375661138580581 -1.24625985761656 1.187533710392211
Ar 3.760233693590533 -0.8732572523816696 2.176964571306659
13
algorithm=ssw size=13 seed=0 index=22 energy=-41.01720049021814 entry_id=22 visits=2
Ar 0.2675501157582261 0.1502953464468179 1.405421419582522
Ar 0.0583001564336489 0.3544666794405506 0.354731208185341
Ar 0.6053535317607268 1.110427034445717 0.9315404650179265
Ar 0.8467104015215888 0.9154665518362011 -0.1512191662688033
Ar 1.092270956885301 0.1393103872378815 0.6345234404950417
Ar -0.1104119718624983 0.6210950495812593 -0.6790107300782728
Ar -0.7069228393304908 -0.1645242883314267 0.9103345518019951
Ar -0.4919148570513213 0.9371560876677782 1.094433259698315
Ar 0.6643963808798109 -0.1816945137579649 -0.3617568107287505
Ar 0.2953804087391108 -0.6648908225493846 0.626880597441611
Ar -0.7008889555807057 0.2502633346777237 1.945063417540454
Ar -0.9581393301631888 0.633847908925393 0.1135878767664725
Ar -0.1316264634841278 1.407373314556564 0.1333883085615219
13
algorithm=ssw size=13 seed=0 index=23 energy=-40.00593296326383 entry_id=23 visits=2
Ar -0.5421561033770796 -0.3867199658608424 1.689429161355467
Ar 0.0778763739280566 0.365844366373163 0.2043645310424681
Ar 0.9633743380132007 0.3902245335803757 0.8824550614673183
Ar 1.008738730733767 0.8782297810929727 -0.117452558873651
Ar 0.9382711995839315 -0.2545604924588887 -0.02978230025709659
Ar -0.02514898385888466 1.286627761889528 -0.3626821000755505
Ar -0.7972324671150446 -0.08368797603395717 0.6557555151710605
Ar -0.05418894028525571 0.5183286519284551 1.292488767991531
Ar 0.3806839304971315 0.3280941760661575 -0.8466877773441209
Ar 0.2472174290378762 -0.4769791424561643 0.8780776468093568
Ar -1.138602522869168 0.5674389995262534 1.483336237210694
Ar -0.7044983522391033 1.04546983200912 0.5492131126540355
Ar 0.3757229024569181 1.330281544521118 0.6794025408645298
13
algorithm=ssw size=13 seed=0 index=24 energy=-41.01720052913792 entry_id=24 visits=3
Ar -0.02032759366913453 -1.164680199625626 0.7841391400141389
Ar 0.07671174579536287 0.5542953032296513 0.3940895537786084
Ar 0.9348166108990099 0.8306426303169636 1.011317996103961
Ar 1.0505592355397 0.2163219387592365 0.06736395698410795
Ar 0.5572346835343051 -0.2327298308780905 0.9764371846124594
Ar -0.4230228613220876 1.364352691995584 -0.1180149388513959
Ar -0.5713578115098377 -0.1992991253901424 0.8430279616653882
Ar -0.8839514660155533 0.8845070398295688 0.7962969149786044
Ar 0.09957972140546366 -0.4303084206324252 -0.04595911006092792
Ar -0.05183663990152478 0.5625236233199119 1.483523648791847
Ar -0.8122357513215344 0.2714633068549807 -0.1528460122778666
Ar 0.04548265768766224 1.521233298959096 0.9004163025284306
Ar 0.7284050033847481 1.330269813438499 0.0181252397487164
13
algorithm=ssw size=13 seed=0 index=25 energy=-35.78998289119433 entry_id=25 visits=1
Ar -1.405956018445094 0.4034117186720231 2.121826751483375
Ar 7.65043761637209 5.582645545364648 -14.5050939151919
Ar -0.8242218710420143 0.624217353113203 1.19369867229642
Ar -0.4620439717057176 1.058553983309426 2.160049884998592
Ar -1.179748659919485 -0.6821822851098273 2.416736251933112
Ar 0.5731400282277044 -0.4066805756476918 1.744176354401219
Ar -1.215187397960401 -0.4037414688343995 1.3411916039082
Ar -0.1903470508240419 -0.2650569512457128 0.9389890650285952
Ar -2.152592377924985 -0.4050105731665642 1.939476696542911
Ar -0.4103567362631396 -0.01977873973118353 2.008432481806047
Ar -0.3747012117618311 -1.064755574621873 1.701559389813228
Ar 0.268289611417908 0.6319139854523507 1.408942225376819
Ar 0.4533455743356096 0.4550556526224984 2.487932375618087
13
algorithm=ssw size=13 seed=0 index=26 energy=-37.60595640214881 entry_id=26 visits=2
Ar 2.223329049711377 -1.276692768039223 0.7767072207079064
Ar 3.071149149983865 -0.7764540829833905 1.223704562711398
Ar 2.120284041721433 -0.2385223710094131 1.214085754871586
Ar 2.852873866679879 -0.1196747858577658 2.069044425725723
Ar 2.310903399732951 -1.101435188750584 1.920309729600457
Ar 3.899955818234429 -0.2040578423113982 1.64684080847809
Ar -36.15022278858434 13.37284040441849 -7.501817249891662
Ar 2.714603876185816 -0.3963676862204142 0.2634913117260066
Ar 3.438121729580257 -1.079612805995317 2.194403663570786
Ar 3.296425037510824 -1.363172456175517 0.3440165568642662
Ar 4.047205418608016 -1.241362837866615 1.220202116569884
Ar 3.814501019882511 -0.3750593170605941 0.5309482394777062
Ar 3.090927915259815 0.3081638080175955 1.055980697593498
13
algorithm=ssw size=13 seed=0 index=27 energy=-37.60595634759368 entry_id=27 visits=2
Ar 2.321263933166016 -0.6221062652430159 0.6717896996384543
Ar 1.490749044296067 0.06289932471135919 0.7709773368921702
Ar 1.556311755808754 -0.7526971470896413 1.494916188144519
Ar 1.148454416846638 0.2615811563657841 1.789293905487192
Ar 2.245667320946979 0.1430644744543041 1.540726240851032
Ar 0.6079022985932635 0.6946452480371297 0.8937426594244197
Ar -15.90928447409859 5.386366651409713 -2.742207026612354
Ar 1.26778661592733 -0.9465021995159277 0.4174454504238966
Ar 1.644967314271158 1.059773097729547 1.159958164269149
Ar 1.767238661222361 -0.1783295448966824 -0.2459908844571594
Ar 1.349326403169607 0.8611534354256064 0.05570704068428482
Ar 0.6816390106348662 -0.05198708515278508 0.04590043574818051
Ar 0.5580352337276868 -0.4092690760687779 1.10565862751197
13
algorithm=ssw size=13 seed=0 index=28 energy=-43.89940494642866 entry_id=28 visits=3
Ar 0.4110936494887173 -0.5631787160834766 0.2699152110374232
Ar 0.05616067668365508 0.4237402760388451 0.5352278315047115
Ar 0.3111784428619209 1.227867015843998 -0.1420629009721404
Ar 0.0705408453072963 0.1820143065920622 -0.5191619325103891
Ar 1.028706570341691 0.369705354936385 0.06447434749433821
Ar -0.9163891024867172 0.4777754811793044 1.005974548645046
Ar 0.8621946087474534 0.02210973495041188 1.134709087453241
Ar 0.04177364599005768 0.66546309830309 1.58961661091018
Ar -0.6881343426488353 -0.2815723411524714 0.1903573938638684
Ar 0.8004619094991627 1.129045859441222 0.8800841075598598
Ar -0.1988724808923301 -0.3803954937868184 1.212503035595226
Ar -0.298770902530977 1.410661998302686 0.8005323860284185
Ar -0.7498859858544857 0.8253554956120307 -0.06425188859330444
13
algorithm=ssw size=13 seed=0 index=29 energy=-43.89940493160695 entry_id=29 visits=3
Ar 0.3406318831204106 0.114194245989969 -0.4615838651040258
Ar 0.05615715804867077 0.4237336699349692 0.535226244556454
Ar 0.7959874168074752 1.032135390874146 0.0323538154270669
Ar -0.7262929949781025 0.004050759863921811 -0.08283791836767102
Ar 1.042683576878543 -0.006446282548437214 0.4252748448354278
Ar -0.9303650925406816 0.8539261867147812 0.6451676849898935
Ar 0.4096224911631505 -0.1911613293522697 1.352133033813001
Ar -0.2283277582534917 0.7332874341437772 1.532029829412443
Ar 0.1018745308219329 -0.641849562429213 0.354088904523756
Ar 0.8386020221351016 0.8434283596642239 1.153291915859624
Ar -0.6836639471609631 -0.1846672356264879 1.03809734953273
Ar 0.01044813858942646 1.489322501026972 0.716353900977454
Ar -0.2972998901248446 1.03863793192096 -0.2816779024396571
13
algorithm=ssw size=13 seed=0 index=30 energy=-37.60595637448625 entry_id=30 visits=2
Ar 1.825697114640622 2.501335155569899 2.74709273580305
Ar 1.336241744887601 1.624450705438319 2.346654076635178
Ar 1.843658205357463 0.9904165071169725 1.632951098462178
Ar 1.693230977049846 1.571671332263858 3.377850902254892
Ar 0.9108251559260001 2.568786456247862 2.03667805784264
Ar 1.704066692352362 0.6605080845186801 2.70597694260733
Ar 0.2487957128072541 1.678160020741131 2.256255640700729
Ar 0.8113543137301147 0.7263184197834638 2.012808787332328
Ar 0.7938109198497766 2.200619022381772 3.099910705160129
Ar 0.9219372610957186 1.634986370059274 1.34811726114988
Ar 0.727690811373953 1.077602539504732 3.078461380556451
Ar -14.48948579103882 -13.25211186373683 -22.18238356144249
Ar 2.402234416474844 1.525849320287655 2.497543810953473
13
algorithm=ssw size=13 seed=0 index=31 energy=-37.60595639970692 entry_id=31 visits=2
Ar 1.431202407062603 0.7950919912214939 0.9598026733214006
Ar 1.891915587952493 1.744645443673434 0.7254161917465718
Ar 1.309565969447715 1.684755459467633 1.647853141285182
Ar 2.253073552343648 2.296144435654857 1.603103821042062
Ar 2.31555151638491 1.173735270423405 1.554998278495142
Ar 2.36952827547574 2.714042439135033 0.5649277462674874
Ar 0.8151588297848625 1.721717351308723 0.6310403204105417
Ar -22.45683153388046 -16.16606285121055 -2.923052655255965
Ar 2.970643724035865 1.809870412827795 0.8857155987540494
Ar 2.483299047377078 0.8743410064141092 0.4770624619009194
Ar 2.517498087255781 1.849950171159772 -0.1500254720576747
Ar 1.486526301073246 2.373647678902111 -0.05487280417072235
Ar 1.342925770194256 2.636713261200709 1.035948536276587
13
algorithm=ssw size=13 seed=0 index=32 energy=-35.72540487490958 entry_id=32 visits=1
Ar 2.13321874443802 -1.309185790727251 -0.8867362820161443
Ar 1.626765529030445 -0.3036635896994966 -0.9670563042440707
Ar 2.254196386714007 0.4823807528421318 -0.5277434976203381
Ar 2.702925323711626 -0.3761652063855994 -1.144293577496615
Ar 2.314350979533643 -0.5370020499592657 -0.102864800005431
Ar 0.3175678141774075 -1.392476730639627 -0.4038900956846304
Ar 1.337599788227715 -1.041604102162149 -0.173283345321912
Ar 0.5030058289132922 -0.6019893118177826 0.3985222390769406
Ar 1.943952421063657 -0.8402524099427569 -1.870376390602817
Ar 1.36077223700216 0.04838102922902897 0.0412658095063972
Ar 1.065353990493763 -1.211008375787223 -1.237149606554247
Ar 0.5799320469974646 -0.3514252602521454 -0.6781037327065625
Ar -17.40958355579512 12.94260311547631 14.50962742168961
13
algorithm=ssw size=13 seed=0 index=33 energy=-34.99094815281776 entry_id=33 visits=1
Ar 0.6561387369277734 1.736630950204541 -0.04489690324855385
Ar 0.003268940977121405 0.7363514393950228 -1.425069533579516
Ar -0.7759532713415893 0.7118134200775014 -0.6340397777052488
Ar -3.581786722112041 -5.959034633601424 18.0833849764072
Ar 0.6616428814622838 2.366992559177921 -0.9795637872293738
Ar 0.725580116436499 -0.2716596845455127 -0.09820880893217586
Ar 0.9127249276217324 1.287955845884007 -1.028126954264794
Ar 0.9036872404534572 0.1816225430355419 -1.102010630202065
Ar 0.2870282067500101 1.731988195932427 -1.828181176709536
Ar -0.1525293898903391 1.629773172134198 -0.8016533284500376
Ar 0.9253466734831751 0.8213453789456083 -2.032228943729049
Ar 0.2876665951422243 0.7213130233288039 -0.3263363952110662
Ar -0.1227574014025926 -0.186500139790054 -0.825150899140245
13
algorithm=ssw size=13 seed=0 index=34 energy=-43.89940496227334 entry_id=34 visits=5
Ar 0.8320842647448363 1.07858429003501 0.9087038185270414
Ar 0.05615822644168535 0.4237372686388471 0.5352242643249834
Ar 0.2695217447135504 1.305949952889084 -0.05346118683320297
Ar -0.0104944721125763 0.3162086385580818 -0.5391917679631729
Ar 0.9904202793895976 0.4271038002732452 -0.0102282644681424
Ar 0.3790051077942135 -0.5228504666279401 0.1227752130324398
Ar -0.8781020410523644 0.4203734429725747 1.080678978792029
Ar -0.2666893797038386 1.370326859121322 0.9476713150957028
Ar 0.8997477588665508 -0.05167614744411914 1.017626222322401
Ar 0.1228124382213636 0.5312678977742513 1.609640006954541
Ar -0.15720589459427 -0.4584747107295027 1.123909462109865