115
Lattice="13.75323 0.0 0.0 0.0 13.75323 0.0 0.0 0.0 23.89" Properties=species:S:1:pos:R:3 entry_id=2 rank=0 energy=-568.3961181640625 parent_id=0 pbc="T T F"
Pd       0.00000000       0.00000000      10.00000000
Pd       2.75064538       0.00000000      10.00000000
Pd       5.50129076       0.00000000      10.00000000
Pd       8.25193614       0.00000000      10.00000000
Pd      11.00258152       0.00000000      10.00000000
Pd       0.00000000       2.75064538      10.00000000
Pd       2.75064538       2.75064538      10.00000000
Pd       5.50129076       2.75064538      10.00000000
Pd       8.25193614       2.75064538      10.00000000
Pd      11.00258152       2.75064538      10.00000000
Pd       0.00000000       5.50129076      10.00000000
Pd       2.75064538       5.50129076      10.00000000
Pd       5.50129076       5.50129076      10.00000000
Pd       8.25193614       5.50129076      10.00000000
Pd      11.00258152       5.50129076      10.00000000
Pd       0.00000000       8.25193614      10.00000000
Pd       2.75064538       8.25193614      10.00000000
Pd       5.50129076       8.25193614      10.00000000
Pd       8.25193614       8.25193614      10.00000000
Pd      11.00258152       8.25193614      10.00000000
Pd       0.00000000      11.00258152      10.00000000
Pd       2.75064538      11.00258152      10.00000000
Pd       5.50129076      11.00258152      10.00000000
Pd       8.25193614      11.00258152      10.00000000
Pd      11.00258152      11.00258152      10.00000000
Pd       1.34360529       1.38733619      12.08107691
Pd       4.09551654       1.39388866      12.02086375
Pd       6.82959268       1.37019991      12.02827971
Pd       9.57512057       1.39592898      11.89594876
Pd      12.38684272       1.37174114      11.92044161
Pd       1.36378808       4.12093670      11.98443234
Pd       4.09985183       4.12642185      12.04076055
Pd       6.80834914       4.10141742      12.01978002
Pd       9.56728621       4.13975942      11.94281254
Pd      12.36578195       4.13265160      11.93417299
Pd       1.37110082       6.89256210      11.94010419
Pd       4.13935064       6.87026939      11.96482277
Pd       6.87097415       6.85831372      11.95140951
Pd       9.64205429       6.82915781      11.94515418
Pd      12.39111484       6.85622887      11.94896407
Pd       1.35730728       9.70362404      12.00032282
Pd       4.11777592       9.66324146      11.95099537
Pd       6.89476706       9.64088005      11.95142944
Pd       9.64982872       9.59779534      11.89439304
Pd      12.42487279       9.60955999      11.94161946
Pd       1.37981019      12.43757148      12.05667702
Pd       4.09776904      12.39502712      12.00243123
Pd       6.86816975      12.39901143      11.97280504
Pd       9.63028672      12.36702810      11.91406436
Pd      12.44627663      12.34270354      11.97891834
Pd      13.67914893      13.72903758      14.14260254
Pd       2.73568031       0.14924895      14.18292362
Pd       5.57070535      13.57848437      14.03338499
Pd       8.31818978       0.10632750      14.03009931
Pd      11.00657687       0.06627711      13.76391829
Pd      13.55828917       2.74938126      13.99519085
Pd       2.60195665       2.90542181      14.12078035
Pd       5.37770824       2.66424376      14.17311019
Pd       8.19348229       2.74584664      13.98536440
Pd      10.87026034       2.71529873      13.87702923
Pd       0.02438294       5.52152136      13.94771473
Pd       2.72519371       5.59526044      14.01410353
Pd       5.45850305       5.48257944      14.07433133
Pd       8.27833261       5.47885601      14.03259582
Pd      11.00635963       5.39907853      13.97133474
Pd       0.04731227       8.32210082      13.97569578
Pd       2.75475380       8.29771510      13.89208929
Pd       5.49521864       8.25996802      13.95281904
Pd       8.39580807       8.21631233      13.82400458
Pd      11.07658516       8.19926748      13.93475375
Pd      13.59445630      10.96987879      14.50015456
Pd       2.75388750      11.08833507      14.01571231
Pd       5.56180905      10.90456224      13.95304857
Pd       8.34814450      11.01192391      13.92755873
Pd      11.04313292      10.88817960      13.82609210
Pd      12.44174297       6.59699797      16.10346938
Pd       8.73700527       9.61216478      16.23414260
Pd       2.04063119      12.73560833      16.63654075
Pd       1.42347101       7.02530156      16.26411137
Pd      11.87890715       9.39277192      16.29480759
Pd       8.32444624       1.36645398      16.94726439
Pd       5.00074285       0.37519214      17.17704158
Pd       5.64899252       9.63480724      17.06505507
Pd       4.40296931      11.77391201      16.14319009
Pd      10.86591364      12.42353358      15.91325062
Pd       0.85071518       4.29709511      16.31524369
Pd       3.87174167       4.40855914      16.32892965
Pd      11.15452663       3.16136748      16.54503405
Pd       2.98879469       9.51308543      16.28140405
Pd       7.26323969       7.13550592      16.88900832
Pd       6.98277049      11.95141778      16.18382855
Pd       9.73086841       6.97953304      15.97221086
Pd       7.43136466       3.70413921      16.43137825
Pd       1.07663219       1.49985999      16.05328566
Pd       4.09316447       7.09001597      15.91762470
O        9.23031583       3.10825922      17.09258422
O       10.39233388      10.52967099      16.84065976
O       12.86400803      12.54031794      15.65985836
O       11.40950203       1.29521042      17.21281586
O       10.37228401       0.44629131      17.13327462
O        5.25967350       7.63548966      17.39484838
O        4.40748338       1.01386474      15.21482061
O        2.39581107       1.64379205      17.54413695
O        8.88478800      12.46152055      15.43993767
O        1.54160866      10.99589504      15.78762764
O        3.01997840       0.38931244      17.70195130
O        2.30925957       5.39427298      17.02931798
O        6.98592132       5.57635483      15.67587733
O        7.54285162       8.88919966      17.78721989
O        5.50477681       3.34913706      16.09082792
O       13.14738257       2.99374195      16.01432621
O       11.03815793       5.18301987      16.05916688
O       13.54950599       8.25839698      16.06087057
O        6.94370837       0.00897793      17.15610402
O        7.07436756       8.63098052      15.27557666
115
Lattice="13.75323 0.0 0.0 0.0 13.75323 0.0 0.0 0.0 23.89" Properties=species:S:1:pos:R:3 entry_id=0 rank=1 energy=-568.3948974609375 parent_id=-1 pbc="T T F"
Pd       0.00000000       0.00000000      10.00000000
Pd       2.75064538       0.00000000      10.00000000
Pd       5.50129076       0.00000000      10.00000000
Pd       8.25193614       0.00000000      10.00000000
Pd      11.00258152       0.00000000      10.00000000
Pd       0.00000000       2.75064538      10.00000000
Pd       2.75064538       2.75064538      10.00000000
Pd       5.50129076       2.75064538      10.00000000
Pd       8.25193614       2.75064538      10.00000000
Pd      11.00258152       2.75064538      10.00000000
Pd       0.00000000       5.50129076      10.00000000
Pd       2.75064538       5.50129076      10.00000000
Pd       5.50129076       5.50129076      10.00000000
Pd       8.25193614       5.50129076      10.00000000
Pd      11.00258152       5.50129076      10.00000000
Pd       0.00000000       8.25193614      10.00000000
Pd       2.75064538       8.25193614      10.00000000
Pd       5.50129076       8.25193614      10.00000000
Pd       8.25193614       8.25193614      10.00000000
Pd      11.00258152       8.25193614      10.00000000
Pd       0.00000000      11.00258152      10.00000000
Pd       2.75064538      11.00258152      10.00000000
Pd       5.50129076      11.00258152      10.00000000
Pd       8.25193614      11.00258152      10.00000000
Pd      11.00258152      11.00258152      10.00000000
Pd       1.34624867       1.38086058      12.08141001
Pd       4.09711601       1.39052641      12.02480415
Pd       6.82982610       1.36956117      12.02878524
Pd       9.57512057       1.39592898      11.89594876
Pd      12.38684272       1.37174114      11.92044161
Pd       1.36477461       4.11655133      11.98602793
Pd       4.10062110       4.12336390      12.03935957
Pd       6.80966172       4.10127742      12.01945974
Pd       9.56728621       4.13975942      11.94281254
Pd      12.36578195       4.13265160      11.93417299
Pd       1.37110082       6.89256210      11.94010419
Pd       4.13935064       6.87026939      11.96482277
Pd       6.87097415       6.85831372      11.95140951
Pd       9.64205429       6.82915781      11.94515418
Pd      12.39111484       6.85622887      11.94896407
Pd       1.35619966       9.70032012      11.99805940
Pd       4.11777592       9.66324146      11.95099537
Pd       6.89476706       9.64088005      11.95142944
Pd       9.64982872       9.59779534      11.89439304
Pd      12.42487279       9.60955999      11.94161946
Pd       1.38043857      12.43191780      12.05377225
Pd       4.10023331      12.39284519      12.00408947
Pd       6.86816975      12.39901143      11.97280504
Pd       9.63028672      12.36702810      11.91406436
Pd      12.44376025      12.34107113      11.97881987
Pd      13.68380099      13.72509071      14.13496474
Pd       2.74101749       0.13689496      14.18795505
Pd       5.57274260      13.58415188      14.03504090
Pd       8.32208861       0.10873310      14.02896373
Pd      11.00943241       0.06540771      13.76260328
Pd      13.56160358       2.74995969      13.99055920
Pd       2.60935442       2.89247528      14.11902124
Pd       5.38705117       2.66354276      14.17472492
Pd       8.19635864       2.74739794      13.98470774
Pd      10.87232344       2.71372084      13.87796128
Pd       0.02065512       5.52364677      13.94649024
Pd       2.72278674       5.58685999      14.00785225
Pd       5.45642215       5.48201937      14.06965073
Pd       8.27767611       5.48390490      14.03245700
Pd      11.00185265       5.39660022      13.97229601
Pd       0.04970048       8.32457204      13.97807757
Pd       2.75358645       8.29350811      13.88785507
Pd       5.49568949       8.26293565      13.94878525
Pd       8.40019819       8.22064339      13.82458535
Pd      11.08214216       8.19516458      13.93712251
Pd      13.58925521      10.96821162      14.50066181
Pd       2.74689754      11.08183774      14.01331005
Pd       5.55693413      10.90586558      13.95548227
Pd       8.34038968      11.01502773      13.92443447
Pd      11.03612812      10.88291513      13.82900576
Pd      12.43757921       6.59286461      16.10454994
Pd       8.74020509       9.62198675      16.23414028
Pd       2.03064665      12.72897340      16.64119042
Pd       1.41921242       7.01587309      16.25549040
Pd      11.87892843       9.39104138      16.30172319
Pd       8.32076695       1.37678608      16.95451971
Pd       4.98985522       0.37834287      17.18447738
Pd       5.65049500       9.65132557      17.05436876
Pd       4.39381971      11.78166082      16.13856138
Pd      10.86717680      12.42523614      15.91205572
Pd       0.84942596       4.28626699      16.30384854
Pd       3.88140886       4.40496189      16.31831911
Pd      11.15781685       3.15618431      16.54905761
Pd       2.99011065       9.51113287      16.27592536
Pd       7.25968099       7.14726489      16.87912247
Pd       6.97181169      11.97801077      16.16844526
Pd       9.73205653       6.98601825      15.97462108
Pd       7.44858059       3.72303730      16.42948844
Pd       1.07454272       1.49117613      16.04522018
Pd       4.09053058       7.08731074      15.90613660
O        9.23782388       3.11397035      17.10109577
O       10.39576949      10.53337255      16.84741365
O       12.86567828      12.54157294      15.65830884
O       11.40037104       1.29083543      17.22752145
O       10.36251173       0.44711202      17.13441457
O        5.25436862       7.65414220      17.37633809
O        4.40724696       1.01623908      15.22002466
O        2.39076460       1.64077174      17.53609481
O        8.88600133      12.46474998      15.43789776
O        1.53670028      10.98904444      15.78943588
O        3.00987975       0.38457321      17.70403105
O        2.31053309       5.38259659      17.01126613
O        6.98072441       5.58701189      15.66939280
O        7.53889024       8.89924015      17.78028811
O        5.52324332       3.35578235      16.08824319
O       13.14555082       2.98278148      16.01059825
O       11.03822587       5.17652336      16.05772403
O       13.54547776       8.25303108      16.06253392
O        6.93505472       0.02468643      17.15652208
O        7.07532465       8.65267808      15.26882659
115
Lattice="13.75323 0.0 0.0 0.0 13.75323 0.0 0.0 0.0 23.89" Properties=species:S:1:pos:R:3 entry_id=5 rank=2 energy=-568.3937377929688 parent_id=4 pbc="T T F"
Pd       0.00000000       0.00000000      10.00000000
Pd       2.75064538       0.00000000      10.00000000
Pd       5.50129076       0.00000000      10.00000000
Pd       8.25193614       0.00000000      10.00000000
Pd      11.00258152       0.00000000      10.00000000
Pd       0.00000000       2.75064538      10.00000000
Pd       2.75064538       2.75064538      10.00000000
Pd       5.50129076       2.75064538      10.00000000
Pd       8.25193614       2.75064538      10.00000000
Pd      11.00258152       2.75064538      10.00000000
Pd       0.00000000       5.50129076      10.00000000
Pd       2.75064538       5.50129076      10.00000000
Pd       5.50129076       5.50129076      10.00000000
Pd       8.25193614       5.50129076      10.00000000
Pd      11.00258152       5.50129076      10.00000000
Pd       0.00000000       8.25193614      10.00000000
Pd       2.75064538       8.25193614      10.00000000
Pd       5.50129076       8.25193614      10.00000000
Pd       8.25193614       8.25193614      10.00000000
Pd      11.00258152       8.25193614      10.00000000
Pd       0.00000000      11.00258152      10.00000000
Pd       2.75064538      11.00258152      10.00000000
Pd       5.50129076      11.00258152      10.00000000
Pd       8.25193614      11.00258152      10.00000000
Pd      11.00258152      11.00258152      10.00000000
Pd       1.34352258       1.38140725      12.08387497
Pd       4.09708049       1.39135764      12.02343533
Pd       6.83006118       1.36901958      12.03312353
Pd       9.57512057       1.39592898      11.89594876
Pd      12.38684272       1.37174114      11.92044161
Pd       1.36304518       4.11879418      11.98316470
Pd       4.10030964       4.12349200      12.03999292
Pd       6.80721183       4.09756346      12.02230449
Pd       9.56728621       4.13975942      11.94281254
Pd      12.36578195       4.13265160      11.93417299
Pd       1.37110082       6.89256210      11.94010419
Pd       4.13935064       6.87026939      11.96482277
Pd       6.87097415       6.85831372      11.95140951
Pd       9.64205429       6.82915781      11.94515418
Pd      12.39111484       6.85622887      11.94896407
Pd       1.35700467       9.70219010      12.00197030
Pd       4.11777592       9.66324146      11.95099537
Pd       6.89476706       9.64088005      11.95142944
Pd       9.64982872       9.59779534      11.89439304
Pd      12.42487279       9.60955999      11.94161946
Pd       1.38105067      12.43278535      12.05852861
Pd       4.09836356      12.39319933      12.00804047
Pd       6.86816975      12.39901143      11.97280504
Pd       9.63028672      12.36702810      11.91406436
Pd      12.44593786      12.34044546      11.97976371
Pd      13.68429004      13.71640412      14.14203868
Pd       2.74613152       0.14254430      14.18571541
Pd       5.58291702      13.57060566      14.04055847
Pd       8.32438183       0.10447978      14.03079996
Pd      11.01123735       0.06304937      13.76529061
Pd      13.55204249       2.74360653      13.99474455
Pd       2.59858538       2.89973549      14.11440904
Pd       5.37019132       2.65693272      14.18457518
Pd       8.18939587       2.74443204      13.99430784
Pd      10.86440999       2.71062667      13.88102785
Pd       0.02385410       5.51934449      13.94539436
Pd       2.72628433       5.58985607      14.00979009
Pd       5.45561493       5.47148409      14.07677094
Pd       8.27510120       5.47485642      14.02997221
Pd      11.00242167       5.39217934      13.97408606
Pd       0.05026648       8.32737031      13.97948891
Pd       2.75522641       8.29452367      13.89360129
Pd       5.49221296       8.25159282      13.95450548
Pd       8.39763039       8.21502799      13.82413701
Pd      11.08068272       8.19397126      13.93664195
Pd      13.58413041      10.96169313      14.54345120
Pd       2.74525241      11.08478284      14.02409586
Pd       5.55911134      10.89733184      13.95791570
Pd       8.34564566      11.00977308      13.93022971
Pd      11.04521486      10.88467617      13.83226077
Pd      12.43075538       6.57482857      16.10766967
Pd       8.73640727       9.60119667      16.23839335
Pd       2.05545175      12.73544830      16.64387459
Pd       1.41310557       6.99726973      16.24837777
Pd      11.87332425       9.37995294      16.30351756
Pd       8.30457258       1.34671475      17.01139467
Pd       5.02440433       0.35140645      17.18244346
Pd       5.64133212       9.60218898      17.06278328
Pd       4.40837088      11.75241063      16.15469675
Pd      10.85860153      12.42480649      15.91865049
Pd       0.80190919       4.27070969      16.31143102
Pd       3.84451633       4.38978081      16.33606449
Pd      11.12224023       3.13960186      16.55903446
Pd       2.98395697       9.49949498      16.28507288
Pd       7.26098339       7.10837302      16.88009267
Pd       6.98998808      11.92558915      16.19972416
Pd       9.72869319       6.97069456      15.96824039
Pd       7.40820306       3.67650915      16.44864729
Pd       1.08683034       1.49005704      16.03963814
Pd       4.08506236       7.07425137      15.92020780
O        9.20278850       3.09462908      17.12620891
O       10.38995946      10.52342342      16.84621090
O       12.85689791      12.54557172      15.67404187
O       11.37371012       1.28379434      17.26246604
O       10.34342861       0.42852234      17.16650484
O        5.25972822       7.60256466      17.39641356
O        4.41934788       0.99723785      15.22135451
O        2.43708344       1.66165904      17.49650028
O        8.87957391      12.46023478      15.44326050
O        1.54285148      10.99291737      15.80820774
O        3.03912081       0.40047780      17.68960136
O        2.26726069       5.35520429      17.02195247
O        6.98288147       5.54777889      15.67079449
O        7.54298371       8.85832415      17.78028816
O        5.48296158       3.33863899      16.10309314
O       13.10662067       2.96090382      16.01008312
O       11.02051485       5.16432891      16.06330494
O       13.53705784       8.23660187      16.06250425
O        6.95960545      13.71077606      17.21781830
O        7.07183607       8.61961910      15.27383329
115
Lattice="13.75323 0.0 0.0 0.0 13.75323 0.0 0.0 0.0 23.89" Properties=species:S:1:pos:R:3 entry_id=3 rank=3 energy=-568.3922119140625 parent_id=2 pbc="T T F"
Pd       0.00000000       0.00000000      10.00000000
Pd       2.75064538       0.00000000      10.00000000
Pd       5.50129076       0.00000000      10.00000000
Pd       8.25193614       0.00000000      10.00000000
Pd      11.00258152       0.00000000      10.00000000
Pd       0.00000000       2.75064538      10.00000000
Pd       2.75064538       2.75064538      10.00000000
Pd       5.50129076       2.75064538      10.00000000
Pd       8.25193614       2.75064538      10.00000000
Pd      11.00258152       2.75064538      10.00000000
Pd       0.00000000       5.50129076      10.00000000
Pd       2.75064538       5.50129076      10.00000000
Pd       5.50129076       5.50129076      10.00000000
Pd       8.25193614       5.50129076      10.00000000
Pd      11.00258152       5.50129076      10.00000000
Pd       0.00000000       8.25193614      10.00000000
Pd       2.75064538       8.25193614      10.00000000
Pd       5.50129076       8.25193614      10.00000000
Pd       8.25193614       8.25193614      10.00000000
Pd      11.00258152       8.25193614      10.00000000
Pd       0.00000000      11.00258152      10.00000000
Pd       2.75064538      11.00258152      10.00000000
Pd       5.50129076      11.00258152      10.00000000
Pd       8.25193614      11.00258152      10.00000000
Pd      11.00258152      11.00258152      10.00000000
Pd       1.34311116       1.37995795      12.08483906
Pd       4.09466381       1.39040765      12.02995158
Pd       6.82824320       1.36792875      12.03076366
Pd       9.57512057       1.39592898      11.89594876
Pd      12.38684272       1.37174114      11.92044161
Pd       1.36298309       4.11772116      11.98674530
Pd       4.09698473       4.12151411      12.03993869
Pd       6.80847607       4.09734906      12.02076445
Pd       9.56728621       4.13975942      11.94281254
Pd      12.36578195       4.13265160      11.93417299
Pd       1.37110082       6.89256210      11.94010419
Pd       4.13935064       6.87026939      11.96482277
Pd       6.87097415       6.85831372      11.95140951
Pd       9.64205429       6.82915781      11.94515418
Pd      12.39111484       6.85622887      11.94896407
Pd       1.35634027       9.70066190      12.00291582
Pd       4.11777592       9.66324146      11.95099537
Pd       6.89476706       9.64088005      11.95142944
Pd       9.64982872       9.59779534      11.89439304
Pd      12.42487279       9.60955999      11.94161946
Pd       1.38371401      12.43139174      12.06007264
Pd       4.10118417      12.39379997      12.00754667
Pd       6.86816975      12.39901143      11.97280504
Pd       9.63028672      12.36702810      11.91406436
Pd      12.44753357      12.34282264      11.97872379
Pd      13.68150938      13.72440539      14.14092504
Pd       2.74215300       0.13776764      14.19304068
Pd       5.57331484      13.57636582      14.03945546
Pd       8.31952078       0.10115488      14.02729946
Pd      11.00941961       0.06754983      13.76262829
Pd      13.54931950       2.74422516      13.99991707
Pd       2.59099865       2.89489148      14.12337622
Pd       5.36284181       2.66129408      14.18618033
Pd       8.18023391       2.74345433      13.99439359
Pd      10.86082935       2.71780039      13.87935311
Pd       0.02376672       5.51690844      13.95128157
Pd       2.72296427       5.58290902      14.01969159
Pd       5.45205186       5.47468933      14.06706757
Pd       8.27807537       5.47816328      14.02876086
Pd      11.00429346       5.39908163      13.97214740
Pd       0.05038839       8.31572457      13.97750972
Pd       2.75351495       8.28494417      13.89217134
Pd       5.49384926       8.25675520      13.95159270
Pd       8.39768362       8.21546150      13.82501666
Pd      11.08032496       8.19640115      13.93460703
Pd      13.59639967      10.96523329      14.49297795
Pd       2.76044717      11.07506477      14.01719595
Pd       5.56380892      10.90108832      13.95970503
Pd       8.34692812      11.00971186      13.92858207
Pd      11.04353026      10.88619963      13.82803019
Pd      12.43957608       6.58070037      16.10839914
Pd       8.74848045       9.61391829      16.23420485
Pd       2.03426970      12.71215504      16.63447779
Pd       1.42534192       7.00105006      16.27171735
Pd      11.89492950       9.38252399      16.29193186
Pd       8.29737089       1.37712612      16.95052309
Pd       4.98545743       0.35698976      17.19594434
Pd       5.65500336       9.62515793      17.06463491
Pd       4.40411556      11.75930524      16.15424607
Pd      10.86828878      12.42748536      15.91295505
Pd       0.81135935       4.27957085      16.33228283
Pd       3.84022681       4.40184444      16.35122587
Pd      11.13016288       3.15478199      16.55400184
Pd       3.00035062       9.49381541      16.27838185
Pd       7.26608673       7.13397258      16.87575927
Pd       6.98518641      11.95040738      16.18733695
Pd       9.73402191       6.97825078      15.97100842
Pd       7.41197338       3.72118503      16.43730243
Pd       1.07428036       1.48897877      16.05320803
Pd       4.09604575       7.06926453      15.91487879
O        9.20639843       3.11800195      17.10514201
O       10.41182084      10.52572933      16.83240599
O       12.86741735      12.53839021      15.65999374
O       11.37233654       1.29474537      17.24420260
O       10.33980112       0.44502349      17.13240662
O        5.26276038       7.62795261      17.38784914
O        4.41524814       1.00378458      15.23360030
O        2.38498980       1.62126912      17.54961321
O        8.88692585      12.46223753      15.44264445
O        1.54447286      10.97394898      15.77917970
O        3.00507442       0.36433741      17.70920807
O        2.27189666       5.36360197      17.05882659
O        6.97390590       5.58169077      15.65962022
O        7.55627362       8.87901188      17.78201028
O        5.48544381       3.36917685      16.09507815
O       13.11745964       2.97411575      16.01653388
O       11.02851761       5.17378591      16.06046438
O       13.55508995       8.23663295      16.05975082
O        6.92966360       0.00916670      17.15590112
O        7.07294133       8.64574284      15.27075769
115
Lattice="13.75323 0.0 0.0 0.0 13.75323 0.0 0.0 0.0 23.89" Properties=species:S:1:pos:R:3 entry_id=4 rank=4 energy=-568.3905639648438 parent_id=2 pbc="T T F"
Pd       0.00000000       0.00000000      10.00000000
Pd       2.75064538       0.00000000      10.00000000
Pd       5.50129076       0.00000000      10.00000000
Pd       8.25193614       0.00000000      10.00000000
Pd      11.00258152       0.00000000      10.00000000
Pd       0.00000000       2.75064538      10.00000000
Pd       2.75064538       2.75064538      10.00000000
Pd       5.50129076       2.75064538      10.00000000
Pd       8.25193614       2.75064538      10.00000000
Pd      11.00258152       2.75064538      10.00000000
Pd       0.00000000       5.50129076      10.00000000
Pd       2.75064538       5.50129076      10.00000000
Pd       5.50129076       5.50129076      10.00000000
Pd       8.25193614       5.50129076      10.00000000
Pd      11.00258152       5.50129076      10.00000000
Pd       0.00000000       8.25193614      10.00000000
Pd       2.75064538       8.25193614      10.00000000
Pd       5.50129076       8.25193614      10.00000000
Pd       8.25193614       8.25193614      10.00000000
Pd      11.00258152       8.25193614      10.00000000
Pd       0.00000000      11.00258152      10.00000000
Pd       2.75064538      11.00258152      10.00000000
Pd       5.50129076      11.00258152      10.00000000
Pd       8.25193614      11.00258152      10.00000000
Pd      11.00258152      11.00258152      10.00000000
Pd       1.33873415       1.38267257      12.07265797
Pd       4.09522835       1.38989884      12.01298807
Pd       6.82912852       1.36959301      12.03170674
Pd       9.57512057       1.39592898      11.89594876
Pd      12.38684272       1.37174114      11.92044161
Pd       1.36100304       4.11873078      11.98457295
Pd       4.09873234       4.12515101      12.03509758
Pd       6.80930342       4.10127352      12.01759483
Pd       9.56728621       4.13975942      11.94281254
Pd      12.36578195       4.13265160      11.93417299
Pd       1.37110082       6.89256210      11.94010419
Pd       4.13935064       6.87026939      11.96482277
Pd       6.87097415       6.85831372      11.95140951
Pd       9.64205429       6.82915781      11.94515418
Pd      12.39111484       6.85622887      11.94896407
Pd       1.35734326       9.70118201      12.00410077
Pd       4.11777592       9.66324146      11.95099537
Pd       6.89476706       9.64088005      11.95142944
Pd       9.64982872       9.59779534      11.89439304
Pd      12.42487279       9.60955999      11.94161946
Pd       1.37876005      12.43048608      12.06382950
Pd       4.09913917      12.39116113      12.00560321
Pd       6.86816975      12.39901143      11.97280504
Pd       9.63028672      12.36702810      11.91406436
Pd      12.44581304      12.34319508      11.97849881
Pd      13.66910417      13.72316310      14.15064652
Pd       2.71993393       0.13415650      14.15981622
Pd       5.56713039      13.57819717      14.04741260
Pd       8.31249654       0.09791484      14.02806682
Pd      11.00250735       0.06531793      13.76482311
Pd      13.55385092       2.74413526      13.99427974
Pd       2.59860272       2.89322778      14.11037061
Pd       5.37866849       2.66758889      14.15987128
Pd       8.19127693       2.74087099      13.98954368
Pd      10.86603391       2.71373321      13.87955379
Pd       0.02229612       5.52241560      13.94591431
Pd       2.72484397       5.58387513      14.00896892
Pd       5.45621818       5.47751227      14.07386544
Pd       8.27659761       5.47102756      14.02982817
Pd      11.00270281       5.39387392      13.97168669
Pd       0.04688198       8.32791284      13.98063551
Pd       2.75433150       8.28853928      13.89332682
Pd       5.49087608       8.26032299      13.95960882
Pd       8.39530033       8.21034857      13.82471954
Pd      11.07752718       8.19320449      13.93518697
Pd      13.59264947      10.96858291      14.53554670
Pd       2.75559096      11.07928683      14.02727402
Pd       5.56344030      10.90655666      13.95761625
Pd       8.35115580      11.00014206      13.93009507
Pd      11.05061427      10.88446210      13.82796053
Pd      12.43310560       6.57445168      16.10732240
Pd       8.72739121       9.58927194      16.24167209
Pd       2.07540520      12.74253563      16.62759101
Pd       1.41620313       7.00313588      16.25187762
Pd      11.87002405       9.37754793      16.29910663