115
Lattice="13.75323 0.0 0.0 0.0 13.75323 0.0 0.0 0.0 23.89" Properties=species:S:1:pos:R:3 entry_id=2 rank=0 energy=-568.3961181640625 parent_id=0 pbc="T T F"
Pd       0.00000000       0.00000000      10.00000000
Pd       2.75064538       0.00000000      10.00000000
Pd       5.50129076       0.00000000      10.00000000
Pd       8.25193614       0.00000000      10.00000000
Pd      11.00258152       0.00000000      10.00000000
Pd       0.00000000       2.75064538      10.00000000
Pd       2.75064538       2.75064538      10.00000000
Pd       5.50129076       2.75064538      10.00000000
Pd       8.25193614       2.75064538      10.00000000
Pd      11.00258152       2.75064538      10.00000000
Pd       0.00000000       5.50129076      10.00000000
Pd       2.75064538       5.50129076      10.00000000
Pd       5.50129076       5.50129076      10.00000000
Pd       8.25193614       5.50129076      10.00000000
Pd      11.00258152       5.50129076      10.00000000
Pd       0.00000000       8.25193614      10.00000000
Pd       2.75064538       8.25193614      10.00000000
Pd       5.50129076       8.25193614      10.00000000
Pd       8.25193614       8.25193614      10.00000000
Pd      11.00258152       8.25193614      10.00000000
Pd       0.00000000      11.00258152      10.00000000
Pd       2.75064538      11.00258152      10.00000000
Pd       5.50129076      11.00258152      10.00000000
Pd       8.25193614      11.00258152      10.00000000
Pd      11.00258152      11.00258152      10.00000000
Pd       1.34360529       1.38733619      12.08107691
Pd       4.09551654       1.39388866      12.02086375
Pd       6.82959268       1.37019991      12.02827971
Pd       9.57512057       1.39592898      11.89594876
Pd      12.38684272       1.37174114      11.92044161
Pd       1.36378808       4.12093670      11.98443234
Pd       4.09985183       4.12642185      12.04076055
Pd       6.80834914       4.10141742      12.01978002
Pd       9.56728621       4.13975942      11.94281254
Pd      12.36578195       4.13265160      11.93417299
Pd       1.37110082       6.89256210      11.94010419
Pd       4.13935064       6.87026939      11.96482277
Pd       6.87097415       6.85831372      11.95140951
Pd       9.64205429       6.82915781      11.94515418
Pd      12.39111484       6.85622887      11.94896407
Pd       1.35730728       9.70362404      12.00032282
Pd       4.11777592       9.66324146      11.95099537
Pd       6.89476706       9.64088005      11.95142944
Pd       9.64982872       9.59779534      11.89439304
Pd      12.42487279       9.60955999      11.94161946
Pd       1.37981019      12.43757148      12.05667702
Pd       4.09776904      12.39502712      12.00243123
Pd       6.86816975      12.39901143      11.97280504
Pd       9.63028672      12.36702810      11.91406436
Pd      12.44627663      12.34270354      11.97891834
Pd      13.67914893      13.72903758      14.14260254
Pd       2.73568031       0.14924895      14.18292362
Pd       5.57070535      13.57848437      14.03338499
Pd       8.31818978       0.10632750      14.03009931
Pd      11.00657687       0.06627711      13.76391829
Pd      13.55828917       2.74938126      13.99519085
Pd       2.60195665       2.90542181      14.12078035
Pd       5.37770824       2.66424376      14.17311019
Pd       8.19348229       2.74584664      13.98536440
Pd      10.87026034       2.71529873      13.87702923
Pd       0.02438294       5.52152136      13.94771473
Pd       2.72519371       5.59526044      14.01410353
Pd       5.45850305       5.48257944      14.07433133
Pd       8.27833261       5.47885601      14.03259582
Pd      11.00635963       5.39907853      13.97133474
Pd       0.04731227       8.32210082      13.97569578
Pd       2.75475380       8.29771510      13.89208929
Pd       5.49521864       8.25996802      13.95281904
Pd       8.39580807       8.21631233      13.82400458
Pd      11.07658516       8.19926748      13.93475375
Pd      13.59445630      10.96987879      14.50015456
Pd       2.75388750      11.08833507      14.01571231
Pd       5.56180905      10.90456224      13.95304857
Pd       8.34814450      11.01192391      13.92755873
Pd      11.04313292      10.88817960      13.82609210
Pd      12.44174297       6.59699797      16.10346938
Pd       8.73700527       9.61216478      16.23414260
Pd       2.04063119      12.73560833      16.63654075
Pd       1.42347101       7.02530156      16.26411137
Pd      11.87890715       9.39277192      16.29480759
Pd       8.32444624       1.36645398      16.94726439
Pd       5.00074285       0.37519214      17.17704158
Pd       5.64899252       9.63480724      17.06505507
Pd       4.40296931      11.77391201      16.14319009
Pd      10.86591364      12.42353358      15.91325062
Pd       0.85071518       4.29709511      16.31524369
Pd       3.87174167       4.40855914      16.32892965
Pd      11.15452663       3.16136748      16.54503405
Pd       2.98879469       9.51308543      16.28140405
Pd       7.26323969       7.13550592      16.88900832
Pd       6.98277049      11.95141778      16.18382855
Pd       9.73086841       6.97953304      15.97221086
Pd       7.43136466       3.70413921      16.43137825
Pd       1.07663219       1.49985999      16.05328566
Pd       4.09316447       7.09001597      15.91762470
O        9.23031583       3.10825922      17.09258422
O       10.39233388      10.52967099      16.84065976
O       12.86400803      12.54031794      15.65985836
O       11.40950203       1.29521042      17.21281586
O       10.37228401       0.44629131      17.13327462
O        5.25967350       7.63548966      17.39484838
O        4.40748338       1.01386474      15.21482061
O        2.39581107       1.64379205      17.54413695
O        8.88478800      12.46152055      15.43993767
O        1.54160866      10.99589504      15.78762764
O        3.01997840       0.38931244      17.70195130
O        2.30925957       5.39427298      17.02931798
O        6.98592132       5.57635483      15.67587733
O        7.54285162       8.88919966      17.78721989
O        5.50477681       3.34913706      16.09082792
O       13.14738257       2.99374195      16.01432621
O       11.03815793       5.18301987      16.05916688
O       13.54950599       8.25839698      16.06087057
O        6.94370837       0.00897793      17.15610402
O        7.07436756       8.63098052      15.27557666
