115
Lattice="13.75323 0.0 0.0 0.0 13.75323 0.0 0.0 0.0 23.89" Properties=species:S:1:pos:R:3 entry_id=7 rank=0 energy=-572.7567138671875 parent_id=6 pbc="T T F"
Pd       0.00000000       0.00000000      10.00000000
Pd       2.75064538       0.00000000      10.00000000
Pd       5.50129076       0.00000000      10.00000000
Pd       8.25193614       0.00000000      10.00000000
Pd      11.00258152       0.00000000      10.00000000
Pd       0.00000000       2.75064538      10.00000000
Pd       2.75064538       2.75064538      10.00000000
Pd       5.50129076       2.75064538      10.00000000
Pd       8.25193614       2.75064538      10.00000000
Pd      11.00258152       2.75064538      10.00000000
Pd       0.00000000       5.50129076      10.00000000
Pd       2.75064538       5.50129076      10.00000000
Pd       5.50129076       5.50129076      10.00000000
Pd       8.25193614       5.50129076      10.00000000
Pd      11.00258152       5.50129076      10.00000000
Pd       0.00000000       8.25193614      10.00000000
Pd       2.75064538       8.25193614      10.00000000
Pd       5.50129076       8.25193614      10.00000000
Pd       8.25193614       8.25193614      10.00000000
Pd      11.00258152       8.25193614      10.00000000
Pd       0.00000000      11.00258152      10.00000000
Pd       2.75064538      11.00258152      10.00000000
Pd       5.50129076      11.00258152      10.00000000
Pd       8.25193614      11.00258152      10.00000000
Pd      11.00258152      11.00258152      10.00000000
Pd       1.40759103       1.36415983      11.98955847
Pd       4.11628124       1.36287386      12.02562491
Pd       6.83929129       1.38383937      11.98337456
Pd       9.57512057       1.39592898      11.89594876
Pd      12.38684272       1.37174114      11.92044161
Pd       1.40174084       4.13890155      11.99029229
Pd       4.08697254       4.11793400      11.99826855
Pd       6.82155239       4.12143569      11.97112227
Pd       9.56728621       4.13975942      11.94281254
Pd      12.36578195       4.13265160      11.93417299
Pd       1.37110082       6.89256210      11.94010419
Pd       4.13935064       6.87026939      11.96482277
Pd       6.87097415       6.85831372      11.95140951
Pd       9.64205429       6.82915781      11.94515418
Pd      12.39111484       6.85622887      11.94896407
Pd       1.39048280       9.61302321      11.95959326
Pd       4.11777592       9.66324146      11.95099537
Pd       6.89476706       9.64088005      11.95142944
Pd       9.64982872       9.59779534      11.89439304
Pd      12.42487279       9.60955999      11.94161946
Pd       1.38567547      12.38003331      11.98497631
Pd       4.12057314      12.38099748      12.01693438
Pd       6.86816975      12.39901143      11.97280504
Pd       9.63028672      12.36702810      11.91406436
Pd      12.38695359      12.37862498      11.94193371
Pd      13.67725468      13.69755448      13.96118265
Pd       2.74935802      13.66738631      14.06509051
Pd       5.48782091      13.71409564      14.05213453
Pd       8.23400683       0.10633870      13.93008395
Pd      10.95411827       0.06985363      13.93623202
Pd       8.26575285       2.79290449      13.90650052
Pd      10.97161603       2.78782439      13.93405578
Pd       0.02806724       2.72897494      13.84446000
Pd       1.28523653       1.65910561      15.94951707
Pd       5.52759831       2.64910567      14.11310736
Pd      13.69811927       5.54926953      13.88943005
Pd       2.83249967       2.77481951      14.05814558
Pd       2.86997197       8.16363081      13.99076644
Pd       8.20532312       5.51883820      14.02088690
Pd      10.98507224       5.55097654      13.96844225
Pd       0.12521233       8.27298971      14.00495298
Pd       5.58801172       8.19918008      13.95304724
Pd       5.37684956       5.41213341      13.93105564
Pd       8.32776309       8.22891004      13.91853199
Pd      11.10119275       8.32553485      14.02221134
Pd       0.00596661      11.00610131      13.96898266
Pd       2.68151992      10.88339201      13.97014289
Pd       5.44049768      10.96244651      13.99598455
Pd       8.28043252      10.93492251      13.98709287
Pd      10.99980434      11.10136439      13.88480214
Pd      12.54109378       6.73317831      16.19305726
Pd       9.46642517       9.60026440      16.18868240
Pd       0.92901924      12.21477516      16.59799043
Pd       2.57877932       5.48427932      14.33639282
Pd      12.27039554       9.91738719      16.09108484
Pd       7.35285825       2.00729878      16.38607615
Pd       4.38908860       0.51830497      16.60902490
Pd       5.25066925       9.41018661      16.40070531
Pd       3.89825964      11.63918219      16.23128818
Pd       9.92446667      12.99433942      16.62476648
Pd      13.71850805       4.09128455      16.16653700
Pd       2.72713706       3.67378402      16.79956389
Pd      10.15056397       4.21456626      16.27085949
Pd       1.88921234       8.78202037      16.48105074
Pd       7.08597136       6.99127326      16.24531548
Pd       6.47237915      12.44981298      16.36340446
Pd       9.78791605       6.86456782      15.94084410
Pd       5.28921628       3.70215136      16.65391431
Pd      11.95385497       1.10567544      16.67231752
Pd       4.32943526       6.82261409      16.14122991
O        8.34746930       3.61122965      15.76310210
O       10.67940337      11.16069392      15.94034211
O       13.61373991       0.11620039      16.04311918
O       10.28606264       2.06250134      17.29737568
O        9.19687763       1.13999866      17.22025872
O        3.70473133       8.43082159      17.10360867
O        2.48778507      13.73211352      16.17689255
O       11.41075199      13.38296902      17.72936112
O        8.36573365      12.57640991      15.49132598
O        2.22697186      10.79511580      17.01841137
O       13.25123133      11.13662982      17.24497532
O        1.62236151       5.16468805      16.23398408
O        5.84973220       5.44893572      15.92753203
O        8.51944047       8.08896373      16.95989073
O        4.08076446       2.39855058      17.47414580
O       12.38419456       2.70217734      15.52607485
O       11.88909609       4.98631458      16.84562611
O       13.65862571       8.48026255      16.07519414
O        6.29398914       0.51716268      17.12335545
O        6.66803410      10.58708063      15.71740019
115
Lattice="13.75323 0.0 0.0 0.0 13.75323 0.0 0.0 0.0 23.89" Properties=species:S:1:pos:R:3 entry_id=8 rank=1 energy=-572.7232666015625 parent_id=7 pbc="T T F"
Pd       0.00000000       0.00000000      10.00000000
Pd       2.75064538       0.00000000      10.00000000
Pd       5.50129076       0.00000000      10.00000000
Pd       8.25193614       0.00000000      10.00000000
Pd      11.00258152       0.00000000      10.00000000
Pd       0.00000000       2.75064538      10.00000000
Pd       2.75064538       2.75064538      10.00000000
Pd       5.50129076       2.75064538      10.00000000
Pd       8.25193614       2.75064538      10.00000000
Pd      11.00258152       2.75064538      10.00000000
Pd       0.00000000       5.50129076      10.00000000
Pd       2.75064538       5.50129076      10.00000000
Pd       5.50129076       5.50129076      10.00000000
Pd       8.25193614       5.50129076      10.00000000
Pd      11.00258152       5.50129076      10.00000000
Pd       0.00000000       8.25193614      10.00000000
Pd       2.75064538       8.25193614      10.00000000
Pd       5.50129076       8.25193614      10.00000000
Pd       8.25193614       8.25193614      10.00000000
Pd      11.00258152       8.25193614      10.00000000
Pd       0.00000000      11.00258152      10.00000000
Pd       2.75064538      11.00258152      10.00000000
Pd       5.50129076      11.00258152      10.00000000
Pd       8.25193614      11.00258152      10.00000000
Pd      11.00258152      11.00258152      10.00000000
Pd       1.40497212       1.35051561      11.99799968
Pd       4.10229521       1.35733823      12.01434220
Pd       6.84883969       1.39093394      11.95614805
Pd       9.57512057       1.39592898      11.89594876
Pd      12.38684272       1.37174114      11.92044161
Pd       1.39676481       4.12651816      12.00490076
Pd       4.07915171       4.11494930      11.99224320
Pd       6.82955269       4.13017557      11.95684431
Pd       9.56728621       4.13975942      11.94281254
Pd      12.36578195       4.13265160      11.93417299
Pd       1.37110082       6.89256210      11.94010419
Pd       4.13935064       6.87026939      11.96482277
Pd       6.87097415       6.85831372      11.95140951
Pd       9.64205429       6.82915781      11.94515418
Pd      12.39111484       6.85622887      11.94896407
Pd       1.38167008       9.60289316      11.96260199
Pd       4.11777592       9.66324146      11.95099537
Pd       6.89476706       9.64088005      11.95142944
Pd       9.64982872       9.59779534      11.89439304
Pd      12.42487279       9.60955999      11.94161946
Pd       1.36282996      12.36815447      11.98930921
Pd       4.10686043      12.36700933      11.99650524
Pd       6.86816975      12.39901143      11.97280504
Pd       9.63028672      12.36702810      11.91406436
Pd      12.37800984      12.37913121      11.95405787
Pd      13.65824995      13.67467501      13.99479493
Pd       2.73386550      13.63517208      14.07340923
Pd       5.48492146      13.73067573      13.95785376
Pd       8.22778282       0.10158665      13.92156404
Pd      10.94140674       0.07594692      13.94250320
Pd       8.30038099       2.78520930      13.89256964
Pd      10.99387664       2.79539051      13.93724996
Pd       0.07106641       2.67510950      13.88617938
Pd       1.42578689       1.49810350      15.96862993
Pd       5.57229384       2.71300744      14.03463068
Pd      13.68201991       5.52995568      13.88662614
Pd       2.85537201       2.75749691      14.08056791
Pd       2.86514621       8.16797405      14.00027095
Pd       8.19831891       5.52395246      14.02122187
Pd      10.96976086       5.55675264      13.97704697
Pd       0.10247464       8.25898549      14.00790484
Pd       5.57934739       8.21453374      13.97159971
Pd       5.36693379       5.44814566      13.89650283
Pd       8.30898388       8.24538406      13.91904241
Pd      11.07033432       8.32303280      14.00071290
Pd      13.70728827      10.98216133      13.98195208
Pd       2.64550713      10.87025957      13.96163449
Pd       5.38515732      10.96616969      14.00909318
Pd       8.19826133      10.96012515      14.00194835
Pd      10.93679416      11.10869452      13.88237601
Pd      12.47085481       6.69613851      16.20649007
Pd       9.34694621       9.63783299      16.19255368
Pd       0.71592110      12.08709940      16.63617651
Pd       2.56962859       5.48298635      14.32342220
Pd      12.12304463       9.90426123      16.08453357
Pd       7.23338036       2.06066005      16.33374808
Pd       4.30028704       1.22328396      16.01439082
Pd       5.04449498       9.39061124      16.41384104
Pd       3.69878571      11.60760405      16.32240122
Pd       9.76652893      13.01349467      16.60563004
Pd      13.65921549       4.06062219      16.15493567
Pd       2.59106878       3.81240457      16.79742591
Pd      10.08973386       4.21452562      16.26081149
Pd       1.74568735       8.64873764      16.48340946
Pd       7.07188489       7.01919366      16.25954568
Pd       6.20693720      12.52450182      16.33450173
Pd       9.75660652       6.89727536      15.94745570
Pd       5.18471017       3.82302252      16.66430539
Pd      11.86804883       1.07736247      16.65828476
Pd       4.33760263       6.73944299      16.18740030
O        8.28724614       3.63501662      15.73535022
O       10.55038517      11.19190724      15.91939978
O       13.55427932       0.10019920      16.08944820
O       10.19044458       2.06598141      17.25281205
O        9.07857858       1.16896183      17.18212467
O        3.56025180       8.30324737      17.10200774
O        2.35709993      13.19184611      16.13277848
O       11.26118837      13.37842896      17.70826453
O        8.17660140      12.59246036      15.50561004
O        2.01104712      10.63477728      17.03679135
O       13.01892204      11.09229218      17.32528735
O        1.46648115       5.27484274      16.19455403
O        5.90366877       5.46058136      15.87061182
O        8.48234207       8.10919718      17.00345622
O        3.94685754       2.56446425      17.52465297
O       12.38119916       2.64171838      15.51945859
O       11.83629086       4.94312230      16.84653646
O       13.51625314       8.46266650      16.06816224
O        6.03133085       0.62227429      16.95250675
O        6.42761355      10.63224928      15.80751067
115
Lattice="13.75323 0.0 0.0 0.0 13.75323 0.0 0.0 0.0 23.89" Properties=species:S:1:pos:R:3 entry_id=3 rank=2 energy=-572.6923828125 parent_id=1 pbc="T T F"
Pd       0.00000000       0.00000000      10.00000000
Pd       2.75064538       0.00000000      10.00000000
Pd       5.50129076       0.00000000      10.00000000
Pd       8.25193614       0.00000000      10.00000000
Pd      11.00258152       0.00000000      10.00000000
Pd       0.00000000       2.75064538      10.00000000
Pd       2.75064538       2.75064538      10.00000000
Pd       5.50129076       2.75064538      10.00000000
Pd       8.25193614       2.75064538      10.00000000
Pd      11.00258152       2.75064538      10.00000000
Pd       0.00000000       5.50129076      10.00000000
Pd       2.75064538       5.50129076      10.00000000
Pd       5.50129076       5.50129076      10.00000000
Pd       8.25193614       5.50129076      10.00000000
Pd      11.00258152       5.50129076      10.00000000
Pd       0.00000000       8.25193614      10.00000000
Pd       2.75064538       8.25193614      10.00000000
Pd       5.50129076       8.25193614      10.00000000
Pd       8.25193614       8.25193614      10.00000000
Pd      11.00258152       8.25193614      10.00000000
Pd       0.00000000      11.00258152      10.00000000
Pd       2.75064538      11.00258152      10.00000000
Pd       5.50129076      11.00258152      10.00000000
Pd       8.25193614      11.00258152      10.00000000
Pd      11.00258152      11.00258152      10.00000000
Pd       1.38188423       1.41512346      12.01425942
Pd       4.10654012       1.39054195      12.01379425
Pd       6.84526193       1.37600646      12.02966768
Pd       9.57512057       1.39592898      11.89594876
Pd      12.38684272       1.37174114      11.92044161
Pd       1.35032773       4.11979890      12.01721617
Pd       4.07516618       4.11989885      11.99878515
Pd       6.82415204       4.10564697      11.97603467
Pd       9.56728621       4.13975942      11.94281254
Pd      12.36578195       4.13265160      11.93417299
Pd       1.37110082       6.89256210      11.94010419
Pd       4.13935064       6.87026939      11.96482277
Pd       6.87097415       6.85831372      11.95140951
Pd       9.64205429       6.82915781      11.94515418
Pd      12.39111484       6.85622887      11.94896407
Pd       1.37298154       9.65144135      11.95740139
Pd       4.11777592       9.66324146      11.95099537
Pd       6.89476706       9.64088005      11.95142944
Pd       9.64982872       9.59779534      11.89439304
Pd      12.42487279       9.60955999      11.94161946
Pd       1.38877936      12.40138686      11.97275889
Pd       4.10650412      12.40169644      11.98581921
Pd       6.86816975      12.39901143      11.97280504
Pd       9.63028672      12.36702810      11.91406436
Pd      12.39273261      12.36582600      11.95320238
Pd      13.69937483      13.73768247      13.90112634
Pd       2.74273781      13.70991891      14.08454081
Pd       5.49669632      13.71654773      14.01761047
Pd       8.30076296       0.10138140      14.01776734
Pd      11.00103008       0.00754804      13.93815884
Pd       8.23117399       2.75816929      14.00844359
Pd      10.89326746       2.68418498      13.89604913
Pd      13.58105538       2.77039657      14.03761343
Pd       2.63196100       2.87638748      14.14531676
Pd       5.45590404       2.73742223      14.04056391
Pd      13.74802205       5.51847767      13.99121427
Pd       2.70403141       5.56243748      13.99945606
Pd       5.37852039       5.49820024      13.97507968
Pd       8.30103835       5.49020986      13.94691938
Pd      11.02671112       5.40957903      13.93884479
Pd       0.04703245       8.28276838      13.98368498
Pd       2.79677414       8.27533341      13.87413055
Pd       5.56573974       8.27282449      13.94549520
Pd       8.32886352       8.26303561      13.93030589
Pd      11.08423488       8.24026905      13.97363563
Pd       0.00257917      10.98756523      14.04195870
Pd       2.65968163      10.99846097      13.99236925
Pd       5.38412812      10.99966783      13.94347696
Pd       8.35413093      10.98210771      14.02673956
Pd      11.05195761      11.00203661      13.87344139
Pd      12.47025565       6.59834279      16.27990920
Pd       9.20802625       9.59079742      16.33712013
Pd       1.34424211      12.29925361      16.39920600
Pd       1.47514492       7.04804347      15.94477304
Pd      12.43176330       9.49025782      16.21039223
Pd       8.03711381       1.51102379      17.22732898
Pd       4.63148031       1.10246177      16.38833547
Pd       5.68491875       9.66868572      16.51054060
Pd       4.04615827      12.19561616      16.13975290
Pd      10.45893727      12.58534752      16.57484504
Pd       0.53849624       4.17270395      16.38618087
Pd       3.56915786       4.36612564      16.37666438
Pd      10.86015679       3.29795735      16.62618375
Pd       2.99689842       9.48048500      16.19729529
Pd       7.11687381       7.22344390      16.25134941
Pd       6.66759867      12.77276907      16.37785727
Pd       9.73928767       6.95550105      15.92441219
Pd       7.16405751       3.68613368      16.41955864
Pd      12.64031445       0.80638137      16.70699816
Pd       4.26261228       6.97271978      15.95962949
O        8.95993475       3.30425240      17.21207495
O       10.84883272      10.68673846      15.89594343
O        0.45052290       0.15798470      15.80386278
O       11.03078834       1.51631808      17.63659719
O        9.89550719       0.56826951      17.51866593
O        4.37359175       8.45049442      17.34294685
O        2.93515220       1.41180312      15.48508397
O       12.27828045      12.67859693      17.48964922
O        8.72761596      12.57081667      15.56754934
O        2.62804675      11.12795198      17.25968435
O       13.19683857      11.64683852      17.19853449
O        1.97915143       5.33424177      16.99262383
O        6.87058209       5.45731150      15.44113617
O        7.53530092       8.90357190      17.12467729
O        5.20906617       3.24733554      16.08375718
O       12.83841554       2.81109656      16.07098810
O       10.99283459       5.25265123      16.01166819
O       13.65377936       8.06882192      16.81952540
O        6.28750866       0.65462753      17.37660197
O        6.74306415      10.99729761      15.49223890
115
Lattice="13.75323 0.0 0.0 0.0 13.75323 0.0 0.0 0.0 23.89" Properties=species:S:1:pos:R:3 entry_id=9 rank=3 energy=-572.6307373046875 parent_id=8 pbc="T T F"
Pd       0.00000000       0.00000000      10.00000000
Pd       2.75064538       0.00000000      10.00000000
Pd       5.50129076       0.00000000      10.00000000
Pd       8.25193614       0.00000000      10.00000000
Pd      11.00258152       0.00000000      10.00000000
Pd       0.00000000       2.75064538      10.00000000
Pd       2.75064538       2.75064538      10.00000000
Pd       5.50129076       2.75064538      10.00000000
Pd       8.25193614       2.75064538      10.00000000
Pd      11.00258152       2.75064538      10.00000000
Pd       0.00000000       5.50129076      10.00000000
Pd       2.75064538       5.50129076      10.00000000
Pd       5.50129076       5.50129076      10.00000000
Pd       8.25193614       5.50129076      10.00000000
Pd      11.00258152       5.50129076      10.00000000
Pd       0.00000000       8.25193614      10.00000000
Pd       2.75064538       8.25193614      10.00000000
Pd       5.50129076       8.25193614      10.00000000
Pd       8.25193614       8.25193614      10.00000000
Pd      11.00258152       8.25193614      10.00000000
Pd       0.00000000      11.00258152      10.00000000
Pd       2.75064538      11.00258152      10.00000000
Pd       5.50129076      11.00258152      10.00000000
Pd       8.25193614      11.00258152      10.00000000
Pd      11.00258152      11.00258152      10.00000000
Pd       1.40552730       1.35864131      12.00343621
Pd       4.10023572       1.36230997      12.01473984
Pd       6.84054164       1.38456828      11.94540062
Pd       9.57512057       1.39592898      11.89594876
Pd      12.38684272       1.37174114      11.92044161
Pd       1.40262132       4.09496333      11.97195238
Pd       4.14098778       4.11494429      11.97092180
Pd       6.82685260       4.16777479      11.95682752
Pd       9.56728621       4.13975942      11.94281254
Pd      12.36578195       4.13265160      11.93417299
Pd       1.37110082       6.89256210      11.94010419
Pd       4.13935064       6.87026939      11.96482277
Pd       6.87097415       6.85831372      11.95140951
Pd       9.64205429       6.82915781      11.94515418
Pd      12.39111484       6.85622887      11.94896407
Pd       1.37548412       9.60995414      11.97506493
Pd       4.11777592       9.66324146      11.95099537
Pd       6.89476706       9.64088005      11.95142944
Pd       9.64982872       9.59779534      11.89439304
Pd      12.42487279       9.60955999      11.94161946
Pd       1.36385377      12.37950682      11.97656585
Pd       4.13457770      12.40556160      12.01123359
Pd       6.86816975      12.39901143      11.97280504
Pd       9.63028672      12.36702810      11.91406436
Pd      12.37524665      12.36962868      11.97477381
Pd      13.67497110      13.68388568      13.99882676
Pd       2.68881417      13.74333413      14.05043169
Pd       5.46925815      13.74682527      14.09619407
Pd       8.22382883       0.11908606      13.90645979
Pd      10.95106643       0.06813289      13.93770517
Pd       8.26670618       2.81284919      13.86033983
Pd      10.95449095       2.81082612      13.90656027
Pd       0.06154630       2.70198201      13.90323532
Pd       1.30891651       1.80105047      16.14939578
Pd       5.51669583       2.72437938      13.92314554
Pd       0.02444254       5.45229252      13.93082404
Pd       2.82980756       2.79545789      14.13387889
Pd       2.81152870       8.19969359      13.96796005
Pd       8.23199903       5.51008624      13.95812934
Pd      11.02806478       5.56561518      13.97063425
Pd       0.07494300       8.20314507      14.04420644
Pd       5.55755873       8.25783695      13.93774942
Pd       2.83068356       5.45719450      13.88825257
Pd       8.29684799       8.24611779      13.89646647
Pd      11.06148829       8.33890031      14.01820591
Pd      13.71102661      10.96385517      13.98633608
Pd       2.67345919      10.94304495      13.92118348
Pd       5.42067259      10.97047032      14.01652925
Pd       8.18632474      10.96379620      13.96419795
Pd      10.92351743      11.09889754      13.92734248
Pd      12.48728306       6.73491596      16.17354202
Pd       9.07341914       9.55566212      16.29435770
Pd       0.89937805      12.13608759      16.56253339
Pd       1.54250562       6.13253948      16.07084366
Pd      12.09065539       9.93098922      16.11958622
Pd       7.08005401       1.90111929      16.08806081
Pd       3.70655433       0.96251527      16.56776281
Pd       5.41161693       9.21776590      16.58754029
Pd       3.88497631      11.28497284      16.28816970
Pd       9.80787548      12.94942069      16.55319386
Pd      13.46160806       3.92361328      16.51534992
Pd       2.59281999       3.78108387      17.37020946
Pd       9.96869689       4.18541456      16.21511587
Pd       1.81207766       8.69759746      16.48142685
Pd       6.97170738       6.80295476      16.01904362
Pd       6.38685316      12.13850449      16.37360004
Pd       9.73900019       6.88421466      15.90252589
Pd       5.06583136       3.94530523      16.22550358
Pd      11.92270785       1.04828615      16.57077778
Pd       4.26978683       6.70249041      15.87122094
O        8.16291030       3.54151433      15.74811359
O       10.41377853      11.04703817      15.98569361
O       13.73313503       0.15947961      16.06923706
O       10.18080193       1.99863342      17.10972401
O        9.09759552       1.09229653      17.04179851
O        3.69778962       8.27488076      16.94344245
O        2.77420318      13.01849422      16.02032937
O       11.33851859      13.32881886      17.61106514
O        8.22028624      12.54310079      15.44151171
O        2.10114456      10.64406531      17.07355910
O       13.08033210      11.24738198      17.17609985
O        1.01841400       4.92045784      17.60775573
O        5.72876800       5.47481681      15.21528594
O        8.32492673       7.85961107      16.96317499
O        4.21485550       2.65912450      17.42221291
O       12.36870587       2.65170749      15.44316015
O       11.69550803       5.00013072      16.80804301
O       13.53174118       8.55981424      16.11423976
O        5.80710788       0.31977087      16.20908677
O        7.02937656      10.31875986      16.71751229
115
Lattice="13.75323 0.0 0.0 0.0 13.75323 0.0 0.0 0.0 23.89" Properties=species:S:1:pos:R:3 entry_id=6 rank=4 energy=-572.6288452148438 parent_id=5 pbc="T T F"
Pd       0.00000000       0.00000000      10.00000000
Pd       2.75064538       0.00000000      10.00000000
Pd       5.50129076       0.00000000      10.00000000
Pd       8.25193614       0.00000000      10.00000000
Pd      11.00258152       0.00000000      10.00000000
Pd       0.00000000       2.75064538      10.00000000
Pd       2.75064538       2.75064538      10.00000000
Pd       5.50129076       2.75064538      10.00000000
Pd       8.25193614       2.75064538      10.00000000
Pd      11.00258152       2.75064538      10.00000000
Pd       0.00000000       5.50129076      10.00000000
Pd       2.75064538       5.50129076      10.00000000
Pd       5.50129076       5.50129076      10.00000000
Pd       8.25193614       5.50129076      10.00000000
Pd      11.00258152       5.50129076      10.00000000
Pd       0.00000000       8.25193614      10.00000000
Pd       2.75064538       8.25193614      10.00000000
Pd       5.50129076       8.25193614      10.00000000
Pd       8.25193614       8.25193614      10.00000000
Pd      11.00258152       8.25193614      10.00000000
Pd       0.00000000      11.00258152      10.00000000
Pd       2.75064538      11.00258152      10.00000000
Pd       5.50129076      11.00258152      10.00000000
Pd       8.25193614      11.00258152      10.00000000
Pd      11.00258152      11.00258152      10.00000000
Pd       1.42295665       1.37659663      11.99545357
Pd       4.09295218       1.37682379      12.03559482
Pd       6.82266425       1.39409418      11.98247781
Pd       9.57512057       1.39592898      11.89594876
Pd      12.38684272       1.37174114      11.92044161
Pd       1.42147607       4.13476839      11.96768571
Pd       4.08247933       4.09667468      11.97339969
Pd       6.80128280       4.13981593      11.98558433
Pd       9.56728621       4.13975942      11.94281254
Pd      12.36578195       4.13265160      11.93417299
Pd       1.37110082       6.89256210      11.94010419
Pd       4.13935064       6.87026939      11.96482277
Pd       6.87097415       6.85831372      11.95140951
Pd       9.64205429       6.82915781      11.94515418
Pd      12.39111484       6.85622887      11.94896407
Pd       1.38810338       9.60204855      11.96655174
Pd       4.11777592       9.66324146      11.95099537
Pd       6.89476706       9.64088005      11.95142944
Pd       9.64982872       9.59779534      11.89439304
Pd      12.42487279       9.60955999      11.94161946
Pd       1.38323400      12.37854261      11.98666966
Pd       4.11748879      12.38471976      12.01096112
Pd       6.86816975      12.39901143      11.97280504
Pd       9.63028672      12.36702810      11.91406436
Pd      12.38974953      12.38420785      11.95103483
Pd      13.69580357      13.72058394      13.96379746
Pd       2.75448726      13.66433488      14.03379364
Pd       5.48487782      13.74231264      14.04518162
Pd       8.23668518       0.10282344      13.90879986
Pd      10.96194326       0.09395271      13.93599001
Pd       8.20741605       2.78022053      13.88584752
Pd      10.92296388       2.82435636      13.90926310
Pd       0.04930797       2.75213664      13.80136379
Pd       1.48554486       1.80263307      15.75539674
Pd       5.38685167       2.67466638      14.08899864
Pd       0.04946177       5.49002273      13.88790352
Pd       2.76558670       3.78828966      14.39995028
Pd       5.23697251       5.43403458      13.94340839
Pd       8.19760939       5.52194987      14.03008860
Pd      11.02375850       5.58732194      13.96296904
Pd       0.14601123       8.24600164      14.03096135
Pd       2.89102847       8.08899626      13.97421616
Pd       5.59352158       8.19664831      13.98143429
Pd       8.33490837       8.24005785      13.91655830
Pd      11.11816109       8.36395288      14.01681048
Pd      13.75104706      11.00844803      13.96465321
Pd       2.67255606      10.84589092      13.97330390
Pd       5.42793350      10.98588487      13.97841003
Pd       8.26593351      10.94745735      14.00856454
Pd      10.98396044      11.12847223      13.89297727
Pd      12.58281478       6.76888189      16.13750370
Pd       9.47152147       9.65430597      16.19973746
Pd       0.93115092      12.33396087      16.58073501
Pd       1.92706259       6.24286755      15.61748252
Pd      12.26150612      10.02547225      16.10980580