115
Lattice="13.75323 0.0 0.0 0.0 13.75323 0.0 0.0 0.0 23.89" Properties=species:S:1:pos:R:3 entry_id=7 rank=0 energy=-571.4243774414062 parent_id=5 pbc="T T F"
Pd       0.00000000       0.00000000      10.00000000
Pd       2.75064538       0.00000000      10.00000000
Pd       5.50129076       0.00000000      10.00000000
Pd       8.25193614       0.00000000      10.00000000
Pd      11.00258152       0.00000000      10.00000000
Pd       0.00000000       2.75064538      10.00000000
Pd       2.75064538       2.75064538      10.00000000
Pd       5.50129076       2.75064538      10.00000000
Pd       8.25193614       2.75064538      10.00000000
Pd      11.00258152       2.75064538      10.00000000
Pd       0.00000000       5.50129076      10.00000000
Pd       2.75064538       5.50129076      10.00000000
Pd       5.50129076       5.50129076      10.00000000
Pd       8.25193614       5.50129076      10.00000000
Pd      11.00258152       5.50129076      10.00000000
Pd       0.00000000       8.25193614      10.00000000
Pd       2.75064538       8.25193614      10.00000000
Pd       5.50129076       8.25193614      10.00000000
Pd       8.25193614       8.25193614      10.00000000
Pd      11.00258152       8.25193614      10.00000000
Pd       0.00000000      11.00258152      10.00000000
Pd       2.75064538      11.00258152      10.00000000
Pd       5.50129076      11.00258152      10.00000000
Pd       8.25193614      11.00258152      10.00000000
Pd      11.00258152      11.00258152      10.00000000
Pd       1.36569617       1.41617210      12.06389470
Pd       4.09080211       1.40058821      11.98734057
Pd       6.82934095       1.37027356      11.96824815
Pd       9.57512057       1.39592898      11.89594876
Pd      12.38684272       1.37174114      11.92044161
Pd       1.36438920       4.14468306      11.99044107
Pd       4.07973474       4.14845120      12.00695603
Pd       6.80585699       4.11776778      11.99992782
Pd       9.56728621       4.13975942      11.94281254
Pd      12.36578195       4.13265160      11.93417299
Pd       1.37110082       6.89256210      11.94010419
Pd       4.13935064       6.87026939      11.96482277
Pd       6.87097415       6.85831372      11.95140951
Pd       9.64205429       6.82915781      11.94515418
Pd      12.39111484       6.85622887      11.94896407
Pd       1.36246109       9.70528400      12.01003028
Pd       4.11777592       9.66324146      11.95099537
Pd       6.89476706       9.64088005      11.95142944
Pd       9.64982872       9.59779534      11.89439304
Pd      12.42487279       9.60955999      11.94161946
Pd       1.35891974      12.45123572      12.00467977
Pd       4.08532356      12.42445884      11.99026238
Pd       6.86816975      12.39901143      11.97280504
Pd       9.63028672      12.36702810      11.91406436
Pd      12.40467485      12.33176941      11.98780664
Pd       0.03100088       0.03794977      14.05308349
Pd       2.77308592       0.22998693      14.18835463
Pd       5.60225233      13.67794531      14.02997918
Pd       8.36058381       0.01779530      13.94786429
Pd      11.04405305      13.69655748      13.95915617
Pd      13.59445846       2.80232802      13.95914783
Pd       2.62006809       2.97052815      14.15176595
Pd       5.41217434       2.69999992      13.98836938
Pd       8.22607677       2.69616359      13.91748531
Pd      10.89730470       2.65066338      13.88280997
Pd       0.02861494       5.56946431      13.96734229
Pd       2.75240455       5.66575940      14.02237045
Pd       5.51221567       5.52666432      14.10697692
Pd       8.27105436       5.45434255      13.97587863
Pd      11.02814874       5.37391119      13.96239421
Pd       0.05800787       8.31749517      13.99079575
Pd       2.81863194       8.40915027      13.94022160
Pd       5.61935355       8.25930270      13.92563372
Pd       8.34477018       8.25090191      13.95764110
Pd      11.08223379       8.17831851      13.91646431
Pd      13.54804475      11.00853187      14.33721603
Pd       2.68458952      11.19991214      13.99848197
Pd       5.44722416      10.95543028      13.86268346
Pd       8.18495699      11.01553425      13.94652425
Pd      10.88957016      10.89397260      13.89684690
Pd      12.52171446       6.44093654      16.32524896
Pd       9.01497749       9.49498217      16.43871047
Pd       2.03720963      12.83875865      16.62737614
Pd       1.53842493       7.19621879      16.00480783
Pd      12.18587142       9.22741250      16.22089342
Pd       9.01692011       0.98802671      17.42162235
Pd       4.94808016       0.83798691      17.18452914
Pd       5.86970408       9.90376217      16.39356563
Pd       4.48650431      12.12784926      16.01076734
Pd      10.76458556      12.55560432      16.53042821
Pd       0.87025432       4.42391327      16.36985157
Pd       3.83636379       4.60373328      16.34424932
Pd      11.21094503       3.17382521      16.55890962
Pd       2.82716268       9.88217631      16.36838794
Pd       7.18437774       6.94286596      16.23921151
Pd       7.15852011      12.99796846      16.28227595
Pd       9.86393752       7.01056868      15.99975071
Pd       7.41982427       3.31626521      16.42196896
Pd       1.02896771       1.56499796      16.06640669
Pd       4.33077073       7.17844306      15.95682805
O        9.27680271       2.91858145      17.22099862
O       10.66632535      10.54888604      15.97073640
O       12.40727669      12.68669481      15.28369973
O       11.89936312       1.43024494      17.22299271
O       10.98873852       0.52865479      17.67704786
O        4.33408121       8.85710770      17.06789532
O        4.40516759       1.24096366      15.18210926
O        2.23079487       1.65671083      17.66521071
O        8.95414417      12.77238324      17.45112209
O        1.39528429      11.15822519      15.75650764
O        3.00688714       0.47255362      17.71725144
O        2.28149373       5.54175453      17.10060721
O        7.97590141       5.15303029      15.95236183
O        7.35025537       8.67477612      17.12248651
O        5.57017842       3.86044500      15.67236759
O       13.20743923       3.12041428      15.95813765
O       11.06136910       5.12976393      16.01309124
O       13.58870073       7.98565194      16.85516255
O        6.93811728       1.27508171      16.93178308
O        7.45765787      11.06259462      15.89562031
115
Lattice="13.75323 0.0 0.0 0.0 13.75323 0.0 0.0 0.0 23.89" Properties=species:S:1:pos:R:3 entry_id=8 rank=1 energy=-571.4216918945312 parent_id=7 pbc="T T F"
Pd       0.00000000       0.00000000      10.00000000
Pd       2.75064538       0.00000000      10.00000000
Pd       5.50129076       0.00000000      10.00000000
Pd       8.25193614       0.00000000      10.00000000
Pd      11.00258152       0.00000000      10.00000000
Pd       0.00000000       2.75064538      10.00000000
Pd       2.75064538       2.75064538      10.00000000
Pd       5.50129076       2.75064538      10.00000000
Pd       8.25193614       2.75064538      10.00000000
Pd      11.00258152       2.75064538      10.00000000
Pd       0.00000000       5.50129076      10.00000000
Pd       2.75064538       5.50129076      10.00000000
Pd       5.50129076       5.50129076      10.00000000
Pd       8.25193614       5.50129076      10.00000000
Pd      11.00258152       5.50129076      10.00000000
Pd       0.00000000       8.25193614      10.00000000
Pd       2.75064538       8.25193614      10.00000000
Pd       5.50129076       8.25193614      10.00000000
Pd       8.25193614       8.25193614      10.00000000
Pd      11.00258152       8.25193614      10.00000000
Pd       0.00000000      11.00258152      10.00000000
Pd       2.75064538      11.00258152      10.00000000
Pd       5.50129076      11.00258152      10.00000000
Pd       8.25193614      11.00258152      10.00000000
Pd      11.00258152      11.00258152      10.00000000
Pd       1.37044409       1.41793215      12.06123456
Pd       4.09865389       1.40705640      11.99417681
Pd       6.83290522       1.36913827      11.96812302
Pd       9.57512057       1.39592898      11.89594876
Pd      12.38684272       1.37174114      11.92044161
Pd       1.36746128       4.14684790      11.99815329
Pd       4.08084406       4.14909856      12.00748833
Pd       6.80895181       4.11764181      11.99833090
Pd       9.56728621       4.13975942      11.94281254
Pd      12.36578195       4.13265160      11.93417299
Pd       1.37110082       6.89256210      11.94010419
Pd       4.13935064       6.87026939      11.96482277
Pd       6.87097415       6.85831372      11.95140951
Pd       9.64205429       6.82915781      11.94515418
Pd      12.39111484       6.85622887      11.94896407
Pd       1.35840087       9.71290083      12.01043937
Pd       4.11777592       9.66324146      11.95099537
Pd       6.89476706       9.64088005      11.95142944
Pd       9.64982872       9.59779534      11.89439304
Pd      12.42487279       9.60955999      11.94161946
Pd       1.36597881      12.45273395      12.00914452
Pd       4.09400427      12.42859441      11.99285917
Pd       6.86816975      12.39901143      11.97280504
Pd       9.63028672      12.36702810      11.91406436
Pd      12.41162899      12.33030439      11.99036389
Pd       0.04143354       0.04838268      14.05601856
Pd       2.78642361       0.23152423      14.18234432
Pd       5.61200889      13.68346037      14.04724492
Pd       8.37261263       0.01943519      13.94396301
Pd      11.05567247      13.67781094      13.96923103
Pd      13.61228293       2.80579975      13.95671353
Pd       2.64864183       2.96900631      14.15749008
Pd       5.44801369       2.71219851      13.99316404
Pd       8.24084665       2.69115552      13.92189888
Pd      10.90833398       2.63060793      13.89350486
Pd       0.01244566       5.57702933      13.97013285
Pd       2.73659231       5.66797029      14.02700749
Pd       5.50351713       5.53321744      14.10214203
Pd       8.25290195       5.42780840      13.97709521
Pd      11.02563347       5.34797316      13.94342589
Pd       0.03797500       8.32348432      13.98914446
Pd       2.78157855       8.41788518      13.93090321
Pd       5.57949372       8.28275695      13.91240191
Pd       8.34585036       8.26384907      13.91760232
Pd      11.07062076       8.14238316      13.97465149
Pd      13.57455890      11.01724044      14.35949973
Pd       2.70903254      11.21077480      14.00427187
Pd       5.46510904      10.96686558      13.87678469
Pd       8.20143664      11.02200407      13.94749491
Pd      10.91651685      10.87425665      13.88921803
Pd      12.49674386       6.47047873      16.31870960
Pd       9.09762684       9.43873875      16.40931521
Pd       2.10683523      12.84977119      16.63133175
Pd       1.49941294       7.19612653      16.01520114
Pd      12.20542333       9.26103624      16.23282880
Pd       9.06825573       1.01394706      17.43246484
Pd       5.01946130       0.86752383      17.16040519
Pd       5.96997945       9.89542385      16.41769985
Pd       4.56524460      12.11632346      16.05685336
Pd      10.81205878      12.57373299      16.54994703
Pd       0.90989079       4.42567659      16.35086035
Pd       3.89335510       4.61371948      16.32935309
Pd      11.27297661       3.16281121      16.56942249
Pd       2.89753978       9.89380838      16.37075208
Pd       6.96555285       7.00362296      15.95913805
Pd       7.22429652      12.99122604      16.28581024
Pd       9.74422212       6.83960082      15.96612379
Pd       7.52133432       3.39214754      16.42914769
Pd       1.06403240       1.55572851      16.07205394
Pd       4.23489688       7.21327299      15.94122639
O        9.34727325       2.94423444      17.24100257
O       10.69845002      10.57925634      15.96097032
O       12.45340962      12.70151798      15.29988739
O       11.95900674       1.43595531      17.28595501
O       11.03420289       0.53689385      17.71449482
O        4.40745608       8.87346682      17.07205386
O        4.42370715       1.27359517      15.18054302
O        2.29699459       1.67956456      17.64678539
O        8.99908497      12.80005729      17.46444784
O        1.45521859      11.16614358      15.76809361
O        3.07754110       0.50012147      17.70335573
O        2.32335655       5.54239368      17.08105014
O        8.10361765       5.28107892      16.05308045
O        7.45125539       8.58880719      17.07960575
O        5.65773639       3.90001623      15.66894955
O       13.25323362       3.10736385      15.96093864
O       11.09157988       5.10891378      15.99674670
O       13.57150085       7.99876533      16.88198573
O        7.00819942       1.30922854      16.89218175
O        7.55508240      11.04552651      15.92229205
115
Lattice="13.75323 0.0 0.0 0.0 13.75323 0.0 0.0 0.0 23.89" Properties=species:S:1:pos:R:3 entry_id=5 rank=2 energy=-571.3400268554688 parent_id=4 pbc="T T F"
Pd       0.00000000       0.00000000      10.00000000
Pd       2.75064538       0.00000000      10.00000000
Pd       5.50129076       0.00000000      10.00000000
Pd       8.25193614       0.00000000      10.00000000
Pd      11.00258152       0.00000000      10.00000000
Pd       0.00000000       2.75064538      10.00000000
Pd       2.75064538       2.75064538      10.00000000
Pd       5.50129076       2.75064538      10.00000000
Pd       8.25193614       2.75064538      10.00000000
Pd      11.00258152       2.75064538      10.00000000
Pd       0.00000000       5.50129076      10.00000000
Pd       2.75064538       5.50129076      10.00000000
Pd       5.50129076       5.50129076      10.00000000
Pd       8.25193614       5.50129076      10.00000000
Pd      11.00258152       5.50129076      10.00000000
Pd       0.00000000       8.25193614      10.00000000
Pd       2.75064538       8.25193614      10.00000000
Pd       5.50129076       8.25193614      10.00000000
Pd       8.25193614       8.25193614      10.00000000
Pd      11.00258152       8.25193614      10.00000000
Pd       0.00000000      11.00258152      10.00000000
Pd       2.75064538      11.00258152      10.00000000
Pd       5.50129076      11.00258152      10.00000000
Pd       8.25193614      11.00258152      10.00000000
Pd      11.00258152      11.00258152      10.00000000
Pd       1.34294947       1.40357284      12.05927574
Pd       4.06940406       1.40136179      11.97604203
Pd       6.82136720       1.37639162      11.96079667
Pd       9.57512057       1.39592898      11.89594876
Pd      12.38684272       1.37174114      11.92044161
Pd       1.37891741       4.12755921      12.01219517
Pd       4.08366159       4.14204362      12.00942710
Pd       6.81183934       4.12270354      12.00035546
Pd       9.56728621       4.13975942      11.94281254
Pd      12.36578195       4.13265160      11.93417299
Pd       1.37110082       6.89256210      11.94010419
Pd       4.13935064       6.87026939      11.96482277
Pd       6.87097415       6.85831372      11.95140951
Pd       9.64205429       6.82915781      11.94515418
Pd      12.39111484       6.85622887      11.94896407
Pd       1.36463595       9.68381778      12.00361208
Pd       4.11777592       9.66324146      11.95099537
Pd       6.89476706       9.64088005      11.95142944
Pd       9.64982872       9.59779534      11.89439304
Pd      12.42487279       9.60955999      11.94161946
Pd       1.34920640      12.43798693      12.02567419
Pd       4.08340725      12.41115084      11.96706053
Pd       6.86816975      12.39901143      11.97280504
Pd       9.63028672      12.36702810      11.91406436
Pd      12.38788909      12.34782328      11.99399160
Pd      13.62973421       0.00983495      14.06380460
Pd       2.72998675       0.12940752      14.13386892
Pd       5.50754405      13.70739506      13.94412976
Pd       8.26788436       0.03981586      13.98132961
Pd      10.92076822       0.00301997      13.94957116
Pd      13.57318576       2.79159202      13.94085194
Pd       2.56697727       2.93642356      14.24221581
Pd       5.42112996       2.67020745      13.98861936
Pd       8.22074201       2.71103099      13.89814134
Pd      10.88944505       2.67517285      13.85574906
Pd       0.04699327       5.53503228      13.97862574
Pd       2.77245527       5.63162361      14.01843017
Pd       5.53531613       5.54547570      14.09778231
Pd       8.28584123       5.46011163      14.01284700
Pd      11.03905719       5.40204333      13.96045387
Pd       0.08181518       8.23777302      13.98578198
Pd       2.84812946       8.35601574      13.93356246
Pd       5.63331002       8.29049508      13.93085684
Pd       8.35569003       8.26160113      13.95758864
Pd      11.09832552       8.22340909      13.89897021
Pd      13.64271666      10.90333026      14.27306278
Pd       2.74878021      11.13162209      13.96197121
Pd       5.47720203      10.98771642      13.87998435
Pd       8.20832226      11.04453850      14.03893107
Pd      10.94026262      10.97884023      13.88407838
Pd      12.54722152       6.30092473      16.39857556
Pd       9.18955831       9.57401120      16.31876926
Pd       1.83732293      12.76963727      16.56343101
Pd       1.62668755       7.15964549      16.00565086
Pd      12.38132685       9.05605395      16.24207867
Pd       9.28488485       0.56260980      16.76220578
Pd       4.53185346       1.01520073      17.09215203
Pd       5.94073747      10.07828228      16.42726659
Pd       4.35895546      12.22348282      15.98840514
Pd      11.36834115      12.39758349      16.44965569
Pd       0.86780465       4.41920703      16.42693299
Pd       3.81679696       4.63212662      16.38586277
Pd      11.19340940       3.06395757      16.48735438
Pd       3.00549851       9.78520839      16.35534223
Pd       7.30678683       6.97218830      16.26477509
Pd       6.89066848      13.33376543      16.28191139
Pd       9.95448746       7.03270983      15.98956851
Pd       7.32332417       3.25414459      16.36726933
Pd       0.78216983       1.50288824      16.10675016
Pd       4.45262174       7.17171026      15.99546688
O        9.21280768       2.54757500      16.83038239
O       10.97479296      10.42665343      15.88770018
O       13.17962141      12.47200260      15.61586387
O       12.09908307       1.42120115      17.28021612
O       11.29615415       0.40694327      17.61810489
O        4.54143802       8.84691596      17.10104920
O        3.91001688       1.59808002      15.13613039
O        1.83381694       1.55184222      17.81850107
O        9.56407826      12.44562851      17.11876338
O        1.54955922      10.96285512      15.69438990
O        2.69680737       0.44260496      17.74111842
O        2.27055651       5.53129868      17.18146679
O        7.97320315       5.11296109      15.98454295
O        7.48633783       8.80740853      16.94542988
O        5.53035018       3.96236228      15.61842149
O       13.18834028       3.16530724      15.94463112
O       11.04842481       5.06470739      15.99956987
O       13.68687675       7.77761331      16.97324193
O        6.44298234       1.43072512      16.83348117
O        7.30708060      11.43266441      15.88723236
115
Lattice="13.75323 0.0 0.0 0.0 13.75323 0.0 0.0 0.0 23.89" Properties=species:S:1:pos:R:3 entry_id=3 rank=3 energy=-571.3385009765625 parent_id=1 pbc="T T F"
Pd       0.00000000       0.00000000      10.00000000
Pd       2.75064538       0.00000000      10.00000000
Pd       5.50129076       0.00000000      10.00000000
Pd       8.25193614       0.00000000      10.00000000
Pd      11.00258152       0.00000000      10.00000000
Pd       0.00000000       2.75064538      10.00000000
Pd       2.75064538       2.75064538      10.00000000
Pd       5.50129076       2.75064538      10.00000000
Pd       8.25193614       2.75064538      10.00000000
Pd      11.00258152       2.75064538      10.00000000
Pd       0.00000000       5.50129076      10.00000000
Pd       2.75064538       5.50129076      10.00000000
Pd       5.50129076       5.50129076      10.00000000
Pd       8.25193614       5.50129076      10.00000000
Pd      11.00258152       5.50129076      10.00000000
Pd       0.00000000       8.25193614      10.00000000
Pd       2.75064538       8.25193614      10.00000000
Pd       5.50129076       8.25193614      10.00000000
Pd       8.25193614       8.25193614      10.00000000
Pd      11.00258152       8.25193614      10.00000000
Pd       0.00000000      11.00258152      10.00000000
Pd       2.75064538      11.00258152      10.00000000
Pd       5.50129076      11.00258152      10.00000000
Pd       8.25193614      11.00258152      10.00000000
Pd      11.00258152      11.00258152      10.00000000
Pd       1.34138621       1.40719348      12.05985419
Pd       4.06488953       1.40099352      11.97487890
Pd       6.81796447       1.37299789      11.95926347
Pd       9.57512057       1.39592898      11.89594876
Pd      12.38684272       1.37174114      11.92044161
Pd       1.38014709       4.12912696      12.01058813
Pd       4.08437528       4.14138549      12.00949513
Pd       6.81262701       4.12032543      11.99779711
Pd       9.56728621       4.13975942      11.94281254
Pd      12.36578195       4.13265160      11.93417299
Pd       1.37110082       6.89256210      11.94010419
Pd       4.13935064       6.87026939      11.96482277
Pd       6.87097415       6.85831372      11.95140951
Pd       9.64205429       6.82915781      11.94515418
Pd      12.39111484       6.85622887      11.94896407
Pd       1.36477369       9.68705040      12.00571500
Pd       4.11777592       9.66324146      11.95099537
Pd       6.89476706       9.64088005      11.95142944
Pd       9.64982872       9.59779534      11.89439304
Pd      12.42487279       9.60955999      11.94161946
Pd       1.34797947      12.44147490      12.02643290
Pd       4.08216643      12.41087631      11.96538173
Pd       6.86816975      12.39901143      11.97280504
Pd       9.63028672      12.36702810      11.91406436
Pd      12.38701415      12.34826232      11.99275665
Pd      13.62683947       0.01071283      14.06589030
Pd       2.72506159       0.13020525      14.13607892
Pd       5.49983684      13.70165685      13.94520340
Pd       8.26128263       0.03393576      13.98479474
Pd      10.91759293       0.00349542      13.94593635
Pd      13.57122816       2.78802272      13.94261451
Pd       2.56142478       2.93819276      14.24906399
Pd       5.41757237       2.66242045      13.98365934
Pd       8.21690600       2.70142662      13.89617587
Pd      10.88659357       2.67581251      13.85915261
Pd       0.05461926       5.52970441      13.98006750
Pd       2.77882589       5.63038689      14.01685093
Pd       5.54134710       5.53859914      14.09325769
Pd       8.29173173       5.44778805      14.00931069
Pd      11.04898188       5.40084811      13.95828723
Pd       0.08269340       8.23207792      13.98554134
Pd       2.84631965       8.35494254      13.93049367
Pd       5.63259987       8.28676414      13.92824028
Pd       8.35529827       8.25333367      13.95203759
Pd      11.09911600       8.21992991      13.90340511
Pd      13.64862140      10.89987055      14.26279753
Pd       2.75396453      11.13441369      13.96284424
Pd       5.47748941      10.98614675      13.88247106
Pd       8.20799595      11.03968642      14.03692146
Pd      10.94049002      10.97465649      13.88608190
Pd      12.55377407       6.30729140      16.39985485
Pd       9.19621470       9.56481909      16.30583551
Pd       1.81308429      12.76398282      16.55492958
Pd       1.63305997       7.15073558      16.00559279
Pd      12.40004593       9.05820402      16.24278396
Pd       9.28520268       0.56441323      16.71497521
Pd       4.52137149       1.00909901      17.09304894
Pd       5.93255632      10.06955639      16.42602164
Pd       4.34534044      12.21805203      15.99712131
Pd      11.38123261      12.39897101      16.42941300
Pd       0.86577498       4.41245638      16.42840413
Pd       3.82099062       4.62118486      16.38180551
Pd      11.18504411       3.06831856      16.49175558
Pd       3.00604446       9.77285935      16.35400596
Pd       7.30011513       6.96577271      16.25331858
Pd       6.87489425      13.33113372      16.28509409
Pd       9.94603039       7.01189914      15.98225017
Pd       7.32061012       3.24646465      16.36675769
Pd       0.76080756       1.50384730      16.12389979
Pd       4.45364070       7.16082024      15.98864253
O        9.20826926       2.54678671      16.83261202
O       10.98722074      10.41781061      15.88786667
O       13.20472698      12.46878090      15.62245023
O       12.08763585       1.42652473      17.30089747
O       11.28341020       0.40514216      17.61186118
O        4.54020516       8.83077007      17.10219625
O        3.90296808       1.59436346      15.13513738
O        1.82335893       1.53700351      17.82936788
O        9.56392118      12.44387008      17.05148585
O        1.55271953      10.94765156      15.69068141
O        2.68664610       0.42869581      17.73605010
O        2.27559718       5.51932899      17.17894036
O        7.97209428       5.10518015      15.98100155
O        7.48792230       8.80357258      16.92701612
O        5.53220448       3.95000873      15.61334455
O       13.17831248       3.16717221      15.94604748
O       11.05173200       5.07294622      16.00166534
O       13.70101354       7.77891421      16.97761206
O        6.43244548       1.42647332      16.84320578
O        7.28453133      11.43114769      15.87690262
115
Lattice="13.75323 0.0 0.0 0.0 13.75323 0.0 0.0 0.0 23.89" Properties=species:S:1:pos:R:3 entry_id=4 rank=4 energy=-571.3365478515625 parent_id=3 pbc="T T F"
Pd       0.00000000       0.00000000      10.00000000
Pd       2.75064538       0.00000000      10.00000000
Pd       5.50129076       0.00000000      10.00000000
Pd       8.25193614       0.00000000      10.00000000
Pd      11.00258152       0.00000000      10.00000000
Pd       0.00000000       2.75064538      10.00000000
Pd       2.75064538       2.75064538      10.00000000
Pd       5.50129076       2.75064538      10.00000000
Pd       8.25193614       2.75064538      10.00000000
Pd      11.00258152       2.75064538      10.00000000
Pd       0.00000000       5.50129076      10.00000000
Pd       2.75064538       5.50129076      10.00000000
Pd       5.50129076       5.50129076      10.00000000
Pd       8.25193614       5.50129076      10.00000000
Pd      11.00258152       5.50129076      10.00000000
Pd       0.00000000       8.25193614      10.00000000
Pd       2.75064538       8.25193614      10.00000000
Pd       5.50129076       8.25193614      10.00000000
Pd       8.25193614       8.25193614      10.00000000
Pd      11.00258152       8.25193614      10.00000000
Pd       0.00000000      11.00258152      10.00000000
Pd       2.75064538      11.00258152      10.00000000
Pd       5.50129076      11.00258152      10.00000000
Pd       8.25193614      11.00258152      10.00000000
Pd      11.00258152      11.00258152      10.00000000
Pd       1.33909982       1.41019573      12.05710833
Pd       4.06781738       1.40530612      11.97131494
Pd       6.81959362       1.37645001      11.96405110
Pd       9.57512057       1.39592898      11.89594876
Pd      12.38684272       1.37174114      11.92044161
Pd       1.37845793       4.13200734      12.01171483
Pd       4.08420819       4.14582206      12.00720083
Pd       6.81240346       4.12038220      12.00302379
Pd       9.56728621       4.13975942      11.94281254
Pd      12.36578195       4.13265160      11.93417299
Pd       1.37110082       6.89256210      11.94010419
Pd       4.13935064       6.87026939      11.96482277
Pd       6.87097415       6.85831372      11.95140951
Pd       9.64205429       6.82915781      11.94515418
Pd      12.39111484       6.85622887      11.94896407
Pd       1.36460555       9.68347198      12.00045778
Pd       4.11777592       9.66324146      11.95099537
Pd       6.89476706       9.64088005      11.95142944
Pd       9.64982872       9.59779534      11.89439304
Pd      12.42487279       9.60955999      11.94161946
Pd       1.34745056      12.44215795      12.02503383
Pd       4.08238315      12.41239164      11.96399603
Pd       6.86816975      12.39901143      11.97280504
Pd       9.63028672      12.36702810      11.91406436
Pd      12.38843186      12.35080852      11.99614413
Pd      13.63533525       0.02332360      14.06835658
Pd       2.73274802       0.12723634      14.11875283
Pd       5.50240044      13.70435439      13.94431711
Pd       8.26166476       0.03290914      13.98629262
Pd      10.92004410       0.00637444      13.95165698
Pd      13.56217515       2.79303409      13.94492834
Pd       2.54598462       2.93832399      14.24086262
Pd       5.40498318       2.66704212      13.98983291
Pd       8.21426262       2.70267124      13.90501871
Pd      10.88265966       2.67883933      13.84986744
Pd       0.04639842       5.53289195      13.98330218
Pd       2.76961218       5.63220491      14.02239888
Pd       5.52856617       5.54513240      14.09632409
Pd       8.28504842       5.45165336      14.01279077
Pd      11.03982665       5.40439062      13.95944918
Pd       0.08179262       8.23272987      13.98385469
Pd       2.84618850       8.35363607      13.93191728
Pd       5.62904320       8.29168206      13.93187293
Pd       8.35350690       8.25599928      13.95289754
Pd      11.09858852       8.22319457      13.90639479
Pd      13.64444542      10.90107378      14.25022272
Pd       2.74743922      11.12681257      13.95627802
Pd       5.47156295      10.99057159      13.88441536
Pd       8.20186342      11.04156630      14.04356671
Pd      10.93750179      10.98034409      13.88373409
Pd      12.54052856       6.32302970      16.39955122
Pd       9.20485872       9.58203987      16.30287926
Pd       1.75835779      12.77461563      16.51851926
Pd       1.62942408       7.15873671      16.00867637
Pd      12.40613282       9.07494014      16.24221129