115
Lattice="13.75323 0.0 0.0 0.0 13.75323 0.0 0.0 0.0 23.89" Properties=species:S:1:pos:R:3 entry_id=34 rank=0 energy=-573.741455078125 parent_id=33 pbc="T T F"
Pd       0.00000000       0.00000000      10.00000000
Pd       2.75064538       0.00000000      10.00000000
Pd       5.50129076       0.00000000      10.00000000
Pd       8.25193614       0.00000000      10.00000000
Pd      11.00258152       0.00000000      10.00000000
Pd       0.00000000       2.75064538      10.00000000
Pd       2.75064538       2.75064538      10.00000000
Pd       5.50129076       2.75064538      10.00000000
Pd       8.25193614       2.75064538      10.00000000
Pd      11.00258152       2.75064538      10.00000000
Pd       0.00000000       5.50129076      10.00000000
Pd       2.75064538       5.50129076      10.00000000
Pd       5.50129076       5.50129076      10.00000000
Pd       8.25193614       5.50129076      10.00000000
Pd      11.00258152       5.50129076      10.00000000
Pd       0.00000000       8.25193614      10.00000000
Pd       2.75064538       8.25193614      10.00000000
Pd       5.50129076       8.25193614      10.00000000
Pd       8.25193614       8.25193614      10.00000000
Pd      11.00258152       8.25193614      10.00000000
Pd       0.00000000      11.00258152      10.00000000
Pd       2.75064538      11.00258152      10.00000000
Pd       5.50129076      11.00258152      10.00000000
Pd       8.25193614      11.00258152      10.00000000
Pd      11.00258152      11.00258152      10.00000000
Pd       1.35358611       1.41640895      11.96676166
Pd       4.11396801       1.40498924      11.93131453
Pd       6.83902750       1.38935392      11.95731782
Pd       9.57512057       1.39592898      11.89594876
Pd      12.38684272       1.37174114      11.92044161
Pd       1.38401308       4.13258575      12.01062217
Pd       4.12375252       4.14286337      11.99708489
Pd       6.84926172       4.12817263      12.00048462
Pd       9.56728621       4.13975942      11.94281254
Pd      12.36578195       4.13265160      11.93417299
Pd       1.37110082       6.89256210      11.94010419
Pd       4.13935064       6.87026939      11.96482277
Pd       6.87097415       6.85831372      11.95140951
Pd       9.64205429       6.82915781      11.94515418
Pd      12.39111484       6.85622887      11.94896407
Pd       1.37425852       9.65306051      11.98942843
Pd       4.11777592       9.66324146      11.95099537
Pd       6.89476706       9.64088005      11.95142944
Pd       9.64982872       9.59779534      11.89439304
Pd      12.42487279       9.60955999      11.94161946
Pd       1.38485681      12.39661766      11.99821383
Pd       4.12302733      12.36794080      11.94732536
Pd       6.86816975      12.39901143      11.97280504
Pd       9.63028672      12.36702810      11.91406436
Pd      12.41334482      12.34959801      11.97623952
Pd       0.05590766       0.11261662      14.00321203
Pd       2.73331275       0.00220730      13.92551978
Pd       5.42954298      13.69727405      13.96468520
Pd       8.16280177      13.72341378      13.84479869
Pd      11.09995701      13.73184301      13.84874664
Pd      10.94861652       2.71081811      13.93369413
Pd      13.63552043       2.83164774      14.01737094
Pd       2.68503430       2.78474419      14.04667972
Pd       5.57499627       2.70586607      14.00197950
Pd       8.27217451       2.74698099      14.00840574
Pd       0.06421049       5.53017529      13.98342311
Pd       2.75303452       5.51093499      14.02840998
Pd       5.53700578       5.61502716      14.07322867
Pd       8.28652896       5.49774417      13.96947959
Pd      11.04378253       5.42994092      13.93067049
Pd      13.69801341       8.25981030      13.96732173
Pd       2.71356130       8.24804231      13.95963369
Pd       5.48193134       8.33025632      13.97181736
Pd       8.27034816       8.25152893      13.98349271
Pd      11.00916583       8.18248246      14.04454620
Pd      13.67145740      11.08409218      14.07872840
Pd       2.85039953      10.99182136      14.00411242
Pd       5.55314887      11.03917905      13.98336615
Pd       6.97489595       9.91574063      15.97643930
Pd       8.28225893      10.97252714      13.89079136
Pd      12.73869488       6.70537129      16.18845686
Pd       9.72086077       9.50052083      16.22384611
Pd       2.04158164      12.80199858      16.42899040
Pd       1.48516994       5.66879910      16.61558283
Pd      10.99896838      10.91582471      13.97665110
Pd       9.55162594       1.63094114      16.24430977
Pd       4.45883793       1.50056314      17.05938180
Pd       4.16682094       9.77598372      16.20692221
Pd       5.50916533      12.35625899      16.57996090
Pd       8.90781240      12.04429002      16.37124494
Pd       1.11978803       2.08632562      16.56283807
Pd       3.81939426       4.05838811      16.31142103
Pd      11.48704693       3.43282417      16.70507754
Pd       1.25102721       9.18923642      16.12832563
Pd       6.71264103       7.13059900      16.26728658
Pd       6.95725161       1.06804001      15.90102430
Pd       9.88430924       6.76573054      16.36698296
Pd       7.45806925       3.76838886      16.60604178
Pd      12.35297444      12.65925257      16.08389444
Pd       3.91285943       6.89787449      15.97516094
O        9.40873179       3.29536491      17.25618525
O       10.76514890      11.29753560      16.02336863
O        9.63257075      13.69745290      15.27041254
O       11.97660856       1.73095051      17.69976591
O       11.23975428       0.69869270      17.25940384
O        5.14056875       8.16143227      16.95298514
O        4.01191204       1.35324601      14.93038668
O        0.29209193       0.07072499      16.07423785
O        7.29596950      13.03870216      16.88552370
O        1.40600018      11.07248638      15.52419835
O        2.57446153       0.83555948      17.21667252
O        2.05331691       3.82652577      17.07476076
O        8.08212111       5.61021599      16.01290909
O        8.58411107       8.08724260      17.01246964
O        5.66110233       4.15730785      15.58173323
O       13.38033689       3.29219770      15.96675631
O       11.24552050       5.35964222      15.98072455
O        0.68523312       7.46755669      16.82743071
O        6.31604792       2.22613135      17.39175916
O        3.69683447      11.68662856      16.76789920
115
Lattice="13.75323 0.0 0.0 0.0 13.75323 0.0 0.0 0.0 23.89" Properties=species:S:1:pos:R:3 entry_id=32 rank=1 energy=-573.730712890625 parent_id=31 pbc="T T F"
Pd       0.00000000       0.00000000      10.00000000
Pd       2.75064538       0.00000000      10.00000000
Pd       5.50129076       0.00000000      10.00000000
Pd       8.25193614       0.00000000      10.00000000
Pd      11.00258152       0.00000000      10.00000000
Pd       0.00000000       2.75064538      10.00000000
Pd       2.75064538       2.75064538      10.00000000
Pd       5.50129076       2.75064538      10.00000000
Pd       8.25193614       2.75064538      10.00000000
Pd      11.00258152       2.75064538      10.00000000
Pd       0.00000000       5.50129076      10.00000000
Pd       2.75064538       5.50129076      10.00000000
Pd       5.50129076       5.50129076      10.00000000
Pd       8.25193614       5.50129076      10.00000000
Pd      11.00258152       5.50129076      10.00000000
Pd       0.00000000       8.25193614      10.00000000
Pd       2.75064538       8.25193614      10.00000000
Pd       5.50129076       8.25193614      10.00000000
Pd       8.25193614       8.25193614      10.00000000
Pd      11.00258152       8.25193614      10.00000000
Pd       0.00000000      11.00258152      10.00000000
Pd       2.75064538      11.00258152      10.00000000
Pd       5.50129076      11.00258152      10.00000000
Pd       8.25193614      11.00258152      10.00000000
Pd      11.00258152      11.00258152      10.00000000
Pd       1.35230664       1.42408381      11.96909136
Pd       4.11149132       1.41243162      11.93339827
Pd       6.83697543       1.39046259      11.95751173
Pd       9.57512057       1.39592898      11.89594876
Pd      12.38684272       1.37174114      11.92044161
Pd       1.38961816       4.13980054      12.01639118
Pd       4.12342479       4.14881052      12.00049659
Pd       6.84904685       4.12857870      12.00547615
Pd       9.56728621       4.13975942      11.94281254
Pd      12.36578195       4.13265160      11.93417299
Pd       1.37110082       6.89256210      11.94010419
Pd       4.13935064       6.87026939      11.96482277
Pd       6.87097415       6.85831372      11.95140951
Pd       9.64205429       6.82915781      11.94515418
Pd      12.39111484       6.85622887      11.94896407
Pd       1.37001801       9.65482924      11.99059637
Pd       4.11777592       9.66324146      11.95099537
Pd       6.89476706       9.64088005      11.95142944
Pd       9.64982872       9.59779534      11.89439304
Pd      12.42487279       9.60955999      11.94161946
Pd       1.37211644      12.40602463      11.99861246
Pd       4.11532278      12.37644675      11.94197264
Pd       6.86816975      12.39901143      11.97280504
Pd       9.63028672      12.36702810      11.91406436
Pd      12.40501473      12.35088113      11.97826140
Pd       0.04947797       0.12324633      14.00677111
Pd       2.72898889       0.02460132      13.93015441
Pd       5.42084509      13.70797349      13.96627748
Pd       8.15138569      13.71947446      13.84571818
Pd      11.08959288      13.74209012      13.84672003
Pd      10.94779337       2.72247673      13.93377112
Pd      13.63320497       2.84148925      14.02001933
Pd       2.68032473       2.80415383      14.05766389
Pd       5.57238552       2.71214116      14.00450049
Pd       8.27128644       2.74401779      14.01096975
Pd       0.08631443       5.53834766      13.98917158
Pd       2.78328912       5.53365818      14.05414001
Pd       5.55869794       5.61906004      14.07994742
Pd       8.30669767       5.49539870      13.97119998
Pd      11.06281582       5.44010290      13.93499262
Pd      13.69748315       8.26679172      13.96844191
Pd       2.71204853       8.25597336      13.96939150
Pd       5.48958815       8.33305189      13.94739999
Pd       8.27715982       8.24920145      13.97912313
Pd      11.01228975       8.18961348      14.04683748
Pd      13.63801916      11.09584644      14.09256170
Pd       2.81121340      11.02111385      13.98145562
Pd       5.53186602      11.05728743      13.96870689
Pd       6.90588561       9.89428717      15.98834309
Pd       8.25332220      10.96362888      13.91530691
Pd      12.75930686       6.70428397      16.19468152
Pd       9.69574502       9.51728748      16.20775008
Pd       2.03341221      12.82988550      16.43916323
Pd       1.53181242       5.72218308      16.61342107
Pd      10.97104439      10.92364860      13.98029091
Pd       9.54809709       1.64057649      16.24990462
Pd       4.45774730       1.51798174      17.07359347
Pd       4.08562927       9.79717773      16.07937040
Pd       5.47558797      12.36394909      16.59640197
Pd       8.88068516      12.05858685      16.37546011
Pd       1.12683897       2.12110938      16.57083595
Pd       3.83355635       4.08763314      16.32446975
Pd      11.49172098       3.43484304      16.71265122
Pd       1.22803048       9.23315778      16.12671332
Pd       6.77299948       7.11567416      16.25216276
Pd       6.94985080       1.06943589      15.90606668
Pd       9.90945174       6.77368635      16.37593697
Pd       7.46579262       3.76255621      16.61909862
Pd      12.33729867      12.69697934      16.09020329
Pd       4.00770467       6.97133897      15.99407230
O        9.41615081       3.29736534      17.27548276
O       10.74241938      11.32415171      16.02493033
O        9.61842236      13.71301734      15.26715236
O       11.98431397       1.72629432      17.69581859
O       11.24525669       0.69277384      17.25059994
O        5.31077180       8.32993836      16.88974560
O        4.01417386       1.37807245      14.93629113
O        0.28854467       0.10347155      16.07672669
O        7.26526655      13.04364067      16.89657942
O        1.38329984      11.11458104      15.52506456
O        2.57297689       0.86288849      17.22670143
O        2.06315372       3.86920408      17.08314894
O        8.10906541       5.58745323      16.01629680
O        8.60308161       8.08292890      17.02056964
O        5.67112278       4.16118116      15.58961248
O       13.38198755       3.30838312      15.96872600
O       11.26250120       5.36328285      15.98735860
O        0.69183794       7.50211645      16.82001153
O        6.31959513       2.22837777      17.40237012
O        3.66630931      11.69146376      16.79884618
115
Lattice="13.75323 0.0 0.0 0.0 13.75323 0.0 0.0 0.0 23.89" Properties=species:S:1:pos:R:3 entry_id=33 rank=2 energy=-573.7255859375 parent_id=32 pbc="T T F"
Pd       0.00000000       0.00000000      10.00000000
Pd       2.75064538       0.00000000      10.00000000
Pd       5.50129076       0.00000000      10.00000000
Pd       8.25193614       0.00000000      10.00000000
Pd      11.00258152       0.00000000      10.00000000
Pd       0.00000000       2.75064538      10.00000000
Pd       2.75064538       2.75064538      10.00000000
Pd       5.50129076       2.75064538      10.00000000
Pd       8.25193614       2.75064538      10.00000000
Pd      11.00258152       2.75064538      10.00000000
Pd       0.00000000       5.50129076      10.00000000
Pd       2.75064538       5.50129076      10.00000000
Pd       5.50129076       5.50129076      10.00000000
Pd       8.25193614       5.50129076      10.00000000
Pd      11.00258152       5.50129076      10.00000000
Pd       0.00000000       8.25193614      10.00000000
Pd       2.75064538       8.25193614      10.00000000
Pd       5.50129076       8.25193614      10.00000000
Pd       8.25193614       8.25193614      10.00000000
Pd      11.00258152       8.25193614      10.00000000
Pd       0.00000000      11.00258152      10.00000000
Pd       2.75064538      11.00258152      10.00000000
Pd       5.50129076      11.00258152      10.00000000
Pd       8.25193614      11.00258152      10.00000000
Pd      11.00258152      11.00258152      10.00000000
Pd       1.35032108       1.42635815      11.97278234
Pd       4.11062295       1.41201758      11.93462096
Pd       6.83729690       1.39246534      11.96000049
Pd       9.57512057       1.39592898      11.89594876
Pd      12.38684272       1.37174114      11.92044161
Pd       1.39627684       4.14225422      12.01980674
Pd       4.12875812       4.15061591      12.00615749
Pd       6.85307206       4.12943323      12.00379818
Pd       9.56728621       4.13975942      11.94281254
Pd      12.36578195       4.13265160      11.93417299
Pd       1.37110082       6.89256210      11.94010419
Pd       4.13935064       6.87026939      11.96482277
Pd       6.87097415       6.85831372      11.95140951
Pd       9.64205429       6.82915781      11.94515418
Pd      12.39111484       6.85622887      11.94896407
Pd       1.37130804       9.64827663      11.98216378
Pd       4.11777592       9.66324146      11.95099537
Pd       6.89476706       9.64088005      11.95142944
Pd       9.64982872       9.59779534      11.89439304
Pd      12.42487279       9.60955999      11.94161946
Pd       1.37229649      12.40692929      11.99103627
Pd       4.11352916      12.37658553      11.94177192
Pd       6.86816975      12.39901143      11.97280504
Pd       9.63028672      12.36702810      11.91406436
Pd      12.40378128      12.35096010      11.97463577
Pd       0.03754451       0.11325089      14.00444464
Pd       2.71674959       0.00814419      13.93375679
Pd       5.41633358      13.71120938      13.96388638
Pd       8.15276330      13.71564162      13.84351319
Pd      11.07873225      13.72838952      13.84821886
Pd      10.95405772       2.71244996      13.93733077
Pd      13.64642818       2.83648711      14.01879020
Pd       2.69313942       2.79632129      14.05885378
Pd       5.57688734       2.71664392      14.01038195
Pd       8.27587229       2.74047202      14.01276124
Pd       0.09173037       5.53375589      13.98608719
Pd       2.79266393       5.53184119      14.07266122
Pd       5.56686381       5.61812833      14.08734399
Pd       8.30943318       5.49168440      13.97436663
Pd      11.06309708       5.43161263      13.93376366
Pd      13.69712651       8.25148788      13.96604240
Pd       2.71682527       8.24521460      13.97504753
Pd       5.49886674       8.32732459      13.94258390
Pd       8.28610150       8.24474398      13.98311298
Pd      11.01541877       8.17668500      14.06187094
Pd      13.63764704      11.07580593      14.06604437
Pd       2.78906240      11.01174528      13.97758517
Pd       5.51101730      11.05862166      13.95766746
Pd       6.86040027       9.89103391      15.98511369
Pd       8.23749678      10.95366315      13.92057983
Pd      12.80801440       6.66139948      16.22356891
Pd       9.66691216       9.47895695      16.23381438
Pd       2.00469167      12.78293122      16.44178276
Pd       1.57140579       5.67674049      16.63396997
Pd      10.96292169      10.90432264      13.97335858
Pd       9.54189945       1.62081765      16.25455543
Pd       4.45234062       1.47322105      17.06596810
Pd       4.03895813       9.77797681      16.05802331
Pd       5.43464396      12.34958767      16.60533976
Pd       8.84088610      12.02920503      16.36582408
Pd       1.12704178       2.07111584      16.57247987
Pd       3.84484381       4.06006637      16.32800357
Pd      11.50350396       3.40062040      16.71725180
Pd       1.22542302       9.18565765      16.13729914
Pd       6.82859116       7.11556891      16.25933293
Pd       6.94435824       1.06063712      15.89890828
Pd       9.96373266       6.72013246      16.39756348
Pd       7.47126349       3.74311173      16.62516330
Pd      12.31069234      12.64409133      16.07285548
Pd       4.06465508       6.98577407      16.00738947
O        9.42062381       3.28022116      17.27870179
O       10.69719345      11.27916196      16.01245231
O        9.60938119      13.68921267      15.27714002
O       11.96365527       1.69570327      17.71633595
O       11.21684886       0.67270851      17.26730478
O        5.42048447       8.41447027      16.86863123
O        3.99879662       1.34523549      14.93893937
O        0.26165964       0.05762576      16.07257615
O        7.23024997      13.02632180      16.87992575
O        1.35334081      11.06674669      15.52699420
O        2.56437697       0.80982264      17.22805681
O        2.07971339       3.81366233      17.08788386
O        8.12881377       5.56176218      16.02037102
O        8.65656093       8.00644591      17.06311230
O        5.68366791       4.15852163      15.59885231
O       13.38987422       3.25955780      15.97379366
O       11.31324305       5.32528373      15.98040129
O        0.73507355       7.45481352      16.86129706
O        6.31079338       2.20551523      17.40201453
O        3.63398310      11.65771996      16.83054631
115
Lattice="13.75323 0.0 0.0 0.0 13.75323 0.0 0.0 0.0 23.89" Properties=species:S:1:pos:R:3 entry_id=28 rank=3 energy=-573.6929931640625 parent_id=27 pbc="T T F"
Pd       0.00000000       0.00000000      10.00000000
Pd       2.75064538       0.00000000      10.00000000
Pd       5.50129076       0.00000000      10.00000000
Pd       8.25193614       0.00000000      10.00000000
Pd      11.00258152       0.00000000      10.00000000
Pd       0.00000000       2.75064538      10.00000000
Pd       2.75064538       2.75064538      10.00000000
Pd       5.50129076       2.75064538      10.00000000
Pd       8.25193614       2.75064538      10.00000000
Pd      11.00258152       2.75064538      10.00000000
Pd       0.00000000       5.50129076      10.00000000
Pd       2.75064538       5.50129076      10.00000000
Pd       5.50129076       5.50129076      10.00000000
Pd       8.25193614       5.50129076      10.00000000
Pd      11.00258152       5.50129076      10.00000000
Pd       0.00000000       8.25193614      10.00000000
Pd       2.75064538       8.25193614      10.00000000
Pd       5.50129076       8.25193614      10.00000000
Pd       8.25193614       8.25193614      10.00000000
Pd      11.00258152       8.25193614      10.00000000
Pd       0.00000000      11.00258152      10.00000000
Pd       2.75064538      11.00258152      10.00000000
Pd       5.50129076      11.00258152      10.00000000
Pd       8.25193614      11.00258152      10.00000000
Pd      11.00258152      11.00258152      10.00000000
Pd       1.36650552       1.40837359      11.96105886
Pd       4.13024362       1.39679499      11.92412134
Pd       6.86625511       1.38259593      11.96495077
Pd       9.57512057       1.39592898      11.89594876
Pd      12.38684272       1.37174114      11.92044161
Pd       1.39741769       4.13592270      12.00077024
Pd       4.12823843       4.14534296      11.98702214
Pd       6.86118575       4.11780368      11.99677485
Pd       9.56728621       4.13975942      11.94281254
Pd      12.36578195       4.13265160      11.93417299
Pd       1.37110082       6.89256210      11.94010419
Pd       4.13935064       6.87026939      11.96482277
Pd       6.87097415       6.85831372      11.95140951
Pd       9.64205429       6.82915781      11.94515418
Pd      12.39111484       6.85622887      11.94896407
Pd       1.38184712       9.64005836      11.97399010
Pd       4.11777592       9.66324146      11.95099537
Pd       6.89476706       9.64088005      11.95142944
Pd       9.64982872       9.59779534      11.89439304
Pd      12.42487279       9.60955999      11.94161946
Pd       1.38213649      12.39504661      11.99074644
Pd       4.12178220      12.37506364      11.95097633
Pd       6.86816975      12.39901143      11.97280504
Pd       9.63028672      12.36702810      11.91406436
Pd      12.38542436      12.37215417      12.00185155
Pd       0.02018880       0.03715407      13.98578323
Pd       2.75157425       0.01467128      13.92415216
Pd       5.47985398      13.70611693      13.98865959
Pd       8.24372694      13.70450825      13.88528485
Pd      10.92881424      13.73015537      13.93070713
Pd      13.69627647       2.78150854      13.96366582
Pd       2.73192955       2.78919768      14.04201065
Pd       5.60134626       2.69377034      13.95695543
Pd       8.33203728       2.71850914      14.06198896
Pd      10.99158483       2.69127157      13.96186630
Pd       0.05843352       5.50296152      13.97752908
Pd       2.73985383       5.52157750      14.04402438
Pd       5.51117663       5.64996991      14.02198435
Pd       8.27127246       5.48517040      13.95149553
Pd      11.03295174       5.42366175      13.93027391
Pd      13.68573639       8.23240736      13.96200061
Pd       2.70472527       8.25735309      13.96309172
Pd       5.47134933       8.35692962      13.98768795
Pd       8.23960009       8.24297548      13.99605362
Pd      10.97449192       8.18035764      14.07441836
Pd      13.71031017      11.02958433      14.00844614
Pd       2.82618942      11.00938447      14.01582306
Pd       5.52458932      11.05784867      13.95804682
Pd       6.93638597      10.01330689      15.96788912
Pd       8.28017872      10.96765708      13.86158431
Pd      12.73265221       6.70721145      16.16343565
Pd       9.53640326       9.33262758      16.32271867
Pd       2.10826306      12.86087101      16.45599989
Pd       1.49790935       5.76125230      16.67177268
Pd      11.02878072      10.92759518      13.95648024
Pd       9.51837139       1.84785845      16.66601629
Pd       4.50867464       1.50980035      17.09900129
Pd       4.14175712       9.81158767      16.17879079
Pd       5.55045328      12.41645476      16.60391384
Pd       8.93688069      12.07198468      16.26354930
Pd       1.31275390       2.19036265      16.60424406
Pd       3.78186774       4.10750348      16.34106016
Pd      11.72640727       3.38894133      16.66689123
Pd       1.21908459       9.27257292      16.10073906
Pd       6.68681567       7.21947254      16.33091849
Pd       7.09100999       1.09092281      15.88612901
Pd       9.89137105       6.57738383      16.42588354
Pd       7.22030560       3.87160632      16.59939372
Pd      12.26898747       0.17055033      16.20946166
Pd       3.93274182       6.93075503      15.97585739
O        8.90724759       3.48739417      17.44869969
O       10.53164783      10.95881782      15.90969828
O       10.28812541       0.06974143      16.01123434
O       12.02959579       1.68119370      17.72009318
O       10.80534452       1.48330812      18.31331287
O        5.09643710       8.22175978      17.00727696
O        4.07008367       1.35381958      14.92543323
O        0.49112327       0.34111484      16.07605705
O        7.36783746      13.08333841      16.86141355
O        1.37450009      11.17202967      15.53937775
O        2.67225883       0.85624199      17.30562435
O        2.08770608       3.94677472      17.23991324
O        7.95400500       5.64384253      15.96334341
O        8.58249671       7.84440821      17.15103991
O        5.54237821       4.16497560      15.48459363
O       13.61030996       3.34990576      15.89569595
O       11.32773707       5.26718211      15.96347076
O        0.64856996       7.54632954      16.79035172
O        6.31860290       2.22768394      17.35821784
O        3.73675308      11.72080002      16.80096485
115
Lattice="13.75323 0.0 0.0 0.0 13.75323 0.0 0.0 0.0 23.89" Properties=species:S:1:pos:R:3 entry_id=31 rank=4 energy=-573.691650390625 parent_id=30 pbc="T T F"
Pd       0.00000000       0.00000000      10.00000000
Pd       2.75064538       0.00000000      10.00000000
Pd       5.50129076       0.00000000      10.00000000
Pd       8.25193614       0.00000000      10.00000000
Pd      11.00258152       0.00000000      10.00000000
Pd       0.00000000       2.75064538      10.00000000
Pd       2.75064538       2.75064538      10.00000000
Pd       5.50129076       2.75064538      10.00000000
Pd       8.25193614       2.75064538      10.00000000
Pd      11.00258152       2.75064538      10.00000000
Pd       0.00000000       5.50129076      10.00000000
Pd       2.75064538       5.50129076      10.00000000
Pd       5.50129076       5.50129076      10.00000000
Pd       8.25193614       5.50129076      10.00000000
Pd      11.00258152       5.50129076      10.00000000
Pd       0.00000000       8.25193614      10.00000000
Pd       2.75064538       8.25193614      10.00000000
Pd       5.50129076       8.25193614      10.00000000
Pd       8.25193614       8.25193614      10.00000000
Pd      11.00258152       8.25193614      10.00000000
Pd       0.00000000      11.00258152      10.00000000
Pd       2.75064538      11.00258152      10.00000000
Pd       5.50129076      11.00258152      10.00000000
Pd       8.25193614      11.00258152      10.00000000
Pd      11.00258152      11.00258152      10.00000000
Pd       1.36828856       1.41761946      11.95961647
Pd       4.13111201       1.40495284      11.92371870
Pd       6.86763817       1.38530032      11.96571950
Pd       9.57512057       1.39592898      11.89594876
Pd      12.38684272       1.37174114      11.92044161
Pd       1.40325962       4.14396283      12.00507159
Pd       4.13039140       4.15122673      11.98997128
Pd       6.86073710       4.12027724      11.99763115
Pd       9.56728621       4.13975942      11.94281254
Pd      12.36578195       4.13265160      11.93417299
Pd       1.37110082       6.89256210      11.94010419
Pd       4.13935064       6.87026939      11.96482277
Pd       6.87097415       6.85831372      11.95140951
Pd       9.64205429       6.82915781      11.94515418
Pd      12.39111484       6.85622887      11.94896407
Pd       1.38168554       9.64171459      11.97027287
Pd       4.11777592       9.66324146      11.95099537
Pd       6.89476706       9.64088005      11.95142944
Pd       9.64982872       9.59779534      11.89439304
Pd      12.42487279       9.60955999      11.94161946
Pd       1.37596842      12.40510727      11.98471749
Pd       4.12076817      12.38324115      11.94735768
Pd       6.86816975      12.39901143      11.97280504
Pd       9.63028672      12.36702810      11.91406436
Pd      12.38043527      12.37291390      12.00131774
Pd       0.02379100       0.04530857      13.98282432
Pd       2.75509158       0.03095759      13.92255186
Pd       5.47968899      13.72120397      13.98911258
Pd       8.24222173      13.70288635      13.88880669
Pd      10.92813948      13.72828631      13.93176104
Pd      10.99544191       2.68968313      13.96613530
Pd      13.69987773       2.78441970      13.95880343
Pd       2.73624112       2.80758495      14.04599990
Pd       5.60678255       2.70367533      13.96024200
Pd       8.33649338       2.71717373      14.06553716
Pd       0.06445211       5.50738298      13.98166729
Pd       2.75218832       5.54484811      14.06105313
Pd       5.51870144       5.66262628      14.02991343
Pd       8.27593644       5.47926892      13.94980308
Pd      11.03389026       5.42300875      13.93150251
Pd      13.69000338       8.23966717      13.95727879
Pd       2.70745184       8.26943542      13.96740362
Pd       5.47882536       8.36527086      13.97183066
Pd       8.24762530       8.24096461      13.99141747
Pd      10.98052152       8.18075617      14.07799673
Pd      13.69450394      11.03929059      14.00596050
Pd       2.80249333      11.03188468      13.99263205
Pd       5.51365021      11.07401593      13.95028906
Pd       6.90456155      10.01416149      15.97776528
Pd       8.26606295      10.96273444      13.87361315
Pd      12.75087077       6.72771380      16.16818454
Pd       9.52416506       9.34612986      16.32147691
Pd       2.10635234      12.89122636      16.45935527
Pd       1.52489628       5.81336770      16.67441692
Pd      11.01500156      10.92786391      13.95837848