115
Lattice="13.75323 0.0 0.0 0.0 13.75323 0.0 0.0 0.0 23.89" Properties=species:S:1:pos:R:3 entry_id=34 rank=0 energy=-573.741455078125 parent_id=33 pbc="T T F"
Pd       0.00000000       0.00000000      10.00000000
Pd       2.75064538       0.00000000      10.00000000
Pd       5.50129076       0.00000000      10.00000000
Pd       8.25193614       0.00000000      10.00000000
Pd      11.00258152       0.00000000      10.00000000
Pd       0.00000000       2.75064538      10.00000000
Pd       2.75064538       2.75064538      10.00000000
Pd       5.50129076       2.75064538      10.00000000
Pd       8.25193614       2.75064538      10.00000000
Pd      11.00258152       2.75064538      10.00000000
Pd       0.00000000       5.50129076      10.00000000
Pd       2.75064538       5.50129076      10.00000000
Pd       5.50129076       5.50129076      10.00000000
Pd       8.25193614       5.50129076      10.00000000
Pd      11.00258152       5.50129076      10.00000000
Pd       0.00000000       8.25193614      10.00000000
Pd       2.75064538       8.25193614      10.00000000
Pd       5.50129076       8.25193614      10.00000000
Pd       8.25193614       8.25193614      10.00000000
Pd      11.00258152       8.25193614      10.00000000
Pd       0.00000000      11.00258152      10.00000000
Pd       2.75064538      11.00258152      10.00000000
Pd       5.50129076      11.00258152      10.00000000
Pd       8.25193614      11.00258152      10.00000000
Pd      11.00258152      11.00258152      10.00000000
Pd       1.35358611       1.41640895      11.96676166
Pd       4.11396801       1.40498924      11.93131453
Pd       6.83902750       1.38935392      11.95731782
Pd       9.57512057       1.39592898      11.89594876
Pd      12.38684272       1.37174114      11.92044161
Pd       1.38401308       4.13258575      12.01062217
Pd       4.12375252       4.14286337      11.99708489
Pd       6.84926172       4.12817263      12.00048462
Pd       9.56728621       4.13975942      11.94281254
Pd      12.36578195       4.13265160      11.93417299
Pd       1.37110082       6.89256210      11.94010419
Pd       4.13935064       6.87026939      11.96482277
Pd       6.87097415       6.85831372      11.95140951
Pd       9.64205429       6.82915781      11.94515418
Pd      12.39111484       6.85622887      11.94896407
Pd       1.37425852       9.65306051      11.98942843
Pd       4.11777592       9.66324146      11.95099537
Pd       6.89476706       9.64088005      11.95142944
Pd       9.64982872       9.59779534      11.89439304
Pd      12.42487279       9.60955999      11.94161946
Pd       1.38485681      12.39661766      11.99821383
Pd       4.12302733      12.36794080      11.94732536
Pd       6.86816975      12.39901143      11.97280504
Pd       9.63028672      12.36702810      11.91406436
Pd      12.41334482      12.34959801      11.97623952
Pd       0.05590766       0.11261662      14.00321203
Pd       2.73331275       0.00220730      13.92551978
Pd       5.42954298      13.69727405      13.96468520
Pd       8.16280177      13.72341378      13.84479869
Pd      11.09995701      13.73184301      13.84874664
Pd      10.94861652       2.71081811      13.93369413
Pd      13.63552043       2.83164774      14.01737094
Pd       2.68503430       2.78474419      14.04667972
Pd       5.57499627       2.70586607      14.00197950
Pd       8.27217451       2.74698099      14.00840574
Pd       0.06421049       5.53017529      13.98342311
Pd       2.75303452       5.51093499      14.02840998
Pd       5.53700578       5.61502716      14.07322867
Pd       8.28652896       5.49774417      13.96947959
Pd      11.04378253       5.42994092      13.93067049
Pd      13.69801341       8.25981030      13.96732173
Pd       2.71356130       8.24804231      13.95963369
Pd       5.48193134       8.33025632      13.97181736
Pd       8.27034816       8.25152893      13.98349271
Pd      11.00916583       8.18248246      14.04454620
Pd      13.67145740      11.08409218      14.07872840
Pd       2.85039953      10.99182136      14.00411242
Pd       5.55314887      11.03917905      13.98336615
Pd       6.97489595       9.91574063      15.97643930
Pd       8.28225893      10.97252714      13.89079136
Pd      12.73869488       6.70537129      16.18845686
Pd       9.72086077       9.50052083      16.22384611
Pd       2.04158164      12.80199858      16.42899040
Pd       1.48516994       5.66879910      16.61558283
Pd      10.99896838      10.91582471      13.97665110
Pd       9.55162594       1.63094114      16.24430977
Pd       4.45883793       1.50056314      17.05938180
Pd       4.16682094       9.77598372      16.20692221
Pd       5.50916533      12.35625899      16.57996090
Pd       8.90781240      12.04429002      16.37124494
Pd       1.11978803       2.08632562      16.56283807
Pd       3.81939426       4.05838811      16.31142103
Pd      11.48704693       3.43282417      16.70507754
Pd       1.25102721       9.18923642      16.12832563
Pd       6.71264103       7.13059900      16.26728658
Pd       6.95725161       1.06804001      15.90102430
Pd       9.88430924       6.76573054      16.36698296
Pd       7.45806925       3.76838886      16.60604178
Pd      12.35297444      12.65925257      16.08389444
Pd       3.91285943       6.89787449      15.97516094
O        9.40873179       3.29536491      17.25618525
O       10.76514890      11.29753560      16.02336863
O        9.63257075      13.69745290      15.27041254
O       11.97660856       1.73095051      17.69976591
O       11.23975428       0.69869270      17.25940384
O        5.14056875       8.16143227      16.95298514
O        4.01191204       1.35324601      14.93038668
O        0.29209193       0.07072499      16.07423785
O        7.29596950      13.03870216      16.88552370
O        1.40600018      11.07248638      15.52419835
O        2.57446153       0.83555948      17.21667252
O        2.05331691       3.82652577      17.07476076
O        8.08212111       5.61021599      16.01290909
O        8.58411107       8.08724260      17.01246964
O        5.66110233       4.15730785      15.58173323
O       13.38033689       3.29219770      15.96675631
O       11.24552050       5.35964222      15.98072455
O        0.68523312       7.46755669      16.82743071
O        6.31604792       2.22613135      17.39175916
O        3.69683447      11.68662856      16.76789920
