115
Lattice="13.75323 0.0 0.0 0.0 13.75323 0.0 0.0 0.0 23.89" Properties=species:S:1:pos:R:3 entry_id=9 rank=6 energy=-572.9555053710938 parent_id=6 pbc="T T F"
Pd       0.00000000       0.00000000      10.00000000
Pd       2.75064538       0.00000000      10.00000000
Pd       5.50129076       0.00000000      10.00000000
Pd       8.25193614       0.00000000      10.00000000
Pd      11.00258152       0.00000000      10.00000000
Pd       0.00000000       2.75064538      10.00000000
Pd       2.75064538       2.75064538      10.00000000
Pd       5.50129076       2.75064538      10.00000000
Pd       8.25193614       2.75064538      10.00000000
Pd      11.00258152       2.75064538      10.00000000
Pd       0.00000000       5.50129076      10.00000000
Pd       2.75064538       5.50129076      10.00000000
Pd       5.50129076       5.50129076      10.00000000
Pd       8.25193614       5.50129076      10.00000000
Pd      11.00258152       5.50129076      10.00000000
Pd       0.00000000       8.25193614      10.00000000
Pd       2.75064538       8.25193614      10.00000000
Pd       5.50129076       8.25193614      10.00000000
Pd       8.25193614       8.25193614      10.00000000
Pd      11.00258152       8.25193614      10.00000000
Pd       0.00000000      11.00258152      10.00000000
Pd       2.75064538      11.00258152      10.00000000
Pd       5.50129076      11.00258152      10.00000000
Pd       8.25193614      11.00258152      10.00000000
Pd      11.00258152      11.00258152      10.00000000
Pd       1.39595134       1.41793802      11.98397425
Pd       4.10681827       1.39138927      11.99519003
Pd       6.82653604       1.38240375      11.99463289
Pd       9.57512057       1.39592898      11.89594876
Pd      12.38684272       1.37174114      11.92044161
Pd       1.37850021       4.14926483      11.99462772
Pd       4.08531671       4.10800495      11.99995695
Pd       6.81209609       4.11417946      11.97372906
Pd       9.56728621       4.13975942      11.94281254
Pd      12.36578195       4.13265160      11.93417299
Pd       1.37110082       6.89256210      11.94010419
Pd       4.13935064       6.87026939      11.96482277
Pd       6.87097415       6.85831372      11.95140951
Pd       9.64205429       6.82915781      11.94515418
Pd      12.39111484       6.85622887      11.94896407
Pd       1.37125100       9.64890865      11.96903334
Pd       4.11777592       9.66324146      11.95099537
Pd       6.89476706       9.64088005      11.95142944
Pd       9.64982872       9.59779534      11.89439304
Pd      12.42487279       9.60955999      11.94161946
Pd       1.36824804      12.41136729      11.95678939
Pd       4.11233964      12.40855811      11.97609615
Pd       6.86816975      12.39901143      11.97280504
Pd       9.63028672      12.36702810      11.91406436
Pd      12.38096524      12.34497309      11.97946841
Pd       0.01061696       0.04474394      13.88865374
Pd       2.79547001       0.09257813      14.04034817
Pd       5.52471704       0.00092444      14.00205965
Pd       8.29723158      13.74575843      13.95372486
Pd      11.02761587      13.71155876      13.96204739
Pd       7.80476848       2.79390385      14.17921573
Pd      11.28488802       2.65339892      14.74041216
Pd       0.03194643       2.81104907      13.93369031
Pd       2.66463435       2.78849225      14.14258382
Pd       5.27570567       2.70782023      14.11221022
Pd       0.00129211       5.53964286      13.97938381
Pd       2.72665080       5.52542288      14.02637263
Pd       5.52377979       5.49171545      13.93982307
Pd       8.23458969       5.48254240      14.00597382
Pd      10.96506015       5.44011963      13.94154623
Pd       0.04880351       8.27702037      13.96275262
Pd       2.86061777       8.31818033      13.90174771
Pd       5.56932349       8.26489921      14.01266237
Pd       8.31413849       8.23384547      13.92146815
Pd      11.03685063       8.26584056      13.93217962
Pd      13.66749036      10.99202526      14.07342798
Pd       2.74112297      11.08128146      13.92786394
Pd       5.49454431      10.98015243      13.89175751
Pd       8.25654606      10.96122216      13.89937536
Pd      10.97400563      10.98079596      14.00113095
Pd      12.19057426       6.70304054      16.06291241
Pd       9.45954837      10.86547489      16.42967046
Pd       1.85530232      12.67199122      16.37752570
Pd       1.70524372       7.31370502      15.99063718
Pd      12.18407823       9.62791541      16.33418656
Pd       8.08087820       1.73951274      16.65826852
Pd       4.29883696       1.11640154      16.33237372
Pd       5.97689747       9.80616350      16.40816768
Pd       4.33970810      12.15007384      15.97558395
Pd      12.29063165      12.43714862      16.22103922
Pd       0.12403630       4.56374520      16.52844537
Pd       2.90711093       4.25073383      16.85699895
Pd       9.25921660       4.74643301      16.86149484
Pd       2.89644420       9.81780323      16.35965794
Pd       6.99145026       6.95719864      15.93314468
Pd       6.83998994      12.73172387      16.30180525
Pd       9.76647520       8.15774950      16.28024844
Pd       6.03011420       4.31960034      16.41983505
Pd       0.78192701       1.69615652      16.59962930
Pd       4.34520267       7.22193338      16.38203922
O        7.63095412       3.59987581      17.32685836
O       11.21210026      11.11109605      17.16102288
O        0.01039266      13.70939770      15.91383660
O       10.34468820       3.16406019      17.45165978
O       10.08510088       2.16577362      16.56876011
O        4.41810415       8.96629494      17.23263957
O        9.71679707       2.69090871      13.55930214
O        1.37720938       3.25844993      17.62067165
O        8.63156982      13.73272828      15.95339396
O        1.38934709      10.89680465      15.62949066
O        2.42638177       0.65554736      17.10771384
O        1.52706312       5.76456837      17.20623927
O        4.31187114       5.32867847      15.82903384
O        8.63170568       6.65764836      16.99599680
O        4.47100278       3.02704529      17.04406815
O       12.94342539       2.85118731      15.88888963
O       10.97369528       5.20540360      15.95702586
O       13.49623317       8.16504219      16.06180153
O        6.25193358       0.77856890      16.84352786
O        7.56634715      10.89201088      15.89411220
