115
Lattice="13.75323 0.0 0.0 0.0 13.75323 0.0 0.0 0.0 23.89" Properties=species:S:1:pos:R:3 entry_id=6 rank=2 energy=-573.0059204101562 parent_id=5 pbc="T T F"
Pd       0.00000000       0.00000000      10.00000000
Pd       2.75064538       0.00000000      10.00000000
Pd       5.50129076       0.00000000      10.00000000
Pd       8.25193614       0.00000000      10.00000000
Pd      11.00258152       0.00000000      10.00000000
Pd       0.00000000       2.75064538      10.00000000
Pd       2.75064538       2.75064538      10.00000000
Pd       5.50129076       2.75064538      10.00000000
Pd       8.25193614       2.75064538      10.00000000
Pd      11.00258152       2.75064538      10.00000000
Pd       0.00000000       5.50129076      10.00000000
Pd       2.75064538       5.50129076      10.00000000
Pd       5.50129076       5.50129076      10.00000000
Pd       8.25193614       5.50129076      10.00000000
Pd      11.00258152       5.50129076      10.00000000
Pd       0.00000000       8.25193614      10.00000000
Pd       2.75064538       8.25193614      10.00000000
Pd       5.50129076       8.25193614      10.00000000
Pd       8.25193614       8.25193614      10.00000000
Pd      11.00258152       8.25193614      10.00000000
Pd       0.00000000      11.00258152      10.00000000
Pd       2.75064538      11.00258152      10.00000000
Pd       5.50129076      11.00258152      10.00000000
Pd       8.25193614      11.00258152      10.00000000
Pd      11.00258152      11.00258152      10.00000000
Pd       1.39474890       1.40152396      11.96847582
Pd       4.11967144       1.40340019      12.01256993
Pd       6.81397601       1.39118501      12.02201557
Pd       9.57512057       1.39592898      11.89594876
Pd      12.38684272       1.37174114      11.92044161
Pd       1.36836014       4.15063876      11.97132892
Pd       4.08897448       4.11141839      12.00409836
Pd       6.80021367       4.12043559      11.99289630
Pd       9.56728621       4.13975942      11.94281254
Pd      12.36578195       4.13265160      11.93417299
Pd       1.37110082       6.89256210      11.94010419
Pd       4.13935064       6.87026939      11.96482277
Pd       6.87097415       6.85831372      11.95140951
Pd       9.64205429       6.82915781      11.94515418
Pd      12.39111484       6.85622887      11.94896407
Pd       1.37638292       9.64789676      11.96570275
Pd       4.11777592       9.66324146      11.95099537
Pd       6.89476706       9.64088005      11.95142944
Pd       9.64982872       9.59779534      11.89439304
Pd      12.42487279       9.60955999      11.94161946
Pd       1.36748360      12.40110538      11.95641292
Pd       4.11124936      12.41765073      11.97949088
Pd       6.86816975      12.39901143      11.97280504
Pd       9.63028672      12.36702810      11.91406436
Pd      12.37588180      12.34417728      11.97885102
Pd       0.00795781       0.03751174      13.88290444
Pd       2.79363218       0.09009486      14.04429945
Pd       5.50578369       0.00334538      14.03935795
Pd       8.27705628       0.00603301      13.96283138
Pd      11.01562340      13.71982738      13.95783618
Pd       7.75441850       2.81294089      14.19535873
Pd      11.26211428       2.67962208      14.73243435
Pd      13.74514228       2.81195774      13.90184245
Pd       2.60006998       2.80055350      14.05357287
Pd       5.18700484       2.72908041      14.24770956
Pd      13.73548851       5.54222546      13.96651190
Pd       2.68939415       5.55415272      13.99608388
Pd       5.48823642       5.52614236      13.94395368
Pd       8.21500927       5.50866717      14.02977241
Pd      10.94807982       5.44911777      13.95818062
Pd       0.07120234       8.27527248      13.95950866
Pd       2.88033535       8.32759401      13.90999876
Pd       5.58929476       8.28726085      14.02191150
Pd       8.33499095       8.25151410      13.91169846
Pd      11.05526964       8.27150268      13.92903008
Pd      13.65321242      10.98796499      14.06365121
Pd       2.74118661      11.07929558      13.93661374
Pd       5.49184982      10.99280974      13.89540326
Pd       8.25331514      10.97248899      13.90339810
Pd      10.96391740      10.98525860      14.01484119
Pd      12.23422640       6.75473461      16.06193212
Pd       9.46038611      10.91100003      16.45605069
Pd       1.83190078      12.65762066      16.36507343
Pd       1.73654003       7.34039089      16.01635356
Pd      12.20695834       9.66147398      16.36585663
Pd       8.08832227       1.79909301      16.68659792
Pd       4.32021372       0.93017640      16.65565715
Pd       5.98968649       9.86449125      16.45141514
Pd       4.34798340      12.10635278      16.02971372
Pd      12.25368364      12.45571256      16.23379079
Pd       0.18237838       4.61013464      16.50989384
Pd       2.99504262       4.29009159      16.64865577
Pd       9.31464609       4.80782595      16.89849527
Pd       2.86447952       9.84562142      16.39576624
Pd       7.04849844       7.09117849      15.97663325
Pd       6.85371990      12.76788032      16.35253996
Pd       9.80265440       8.21569996      16.28374011
Pd       6.17386370       4.48628906      16.43517062
Pd       0.78895830       1.70016206      16.52642861
Pd       4.39305688       7.33849539      16.43023963
O        7.69157823       3.66757286      17.37480981
O       11.21080688      11.12451329      17.20631366
O       13.72968839      13.71583889      15.90665504
O       10.38190721       3.20565622      17.44931782
O       10.09249118       2.21748558      16.56157557
O        4.41386130       9.07377472      17.30252574
O        9.67286260       2.69518926      13.56630341
O        1.48010359       3.27412635      17.43498677
O        8.61766949       0.04137625      15.95847273
O        1.36059023      10.88868441      15.61443076
O        2.39355005       0.62682324      17.12510718
O        1.64559319       5.76134247      17.20118883
O        4.46498183       5.46325036      15.85470234
O        8.68297769       6.71874744      17.02510399
O        4.48876755       2.94120287      16.29273350
O       12.95507577       2.89920518      15.85651543
O       11.01493545       5.26258370      15.97545952
O       13.53547921       8.22019425      16.05896201
O        6.27831475       0.79055000      16.97066164
O        7.57676768      10.93988361      15.89765719
