115
Lattice="13.75323 0.0 0.0 0.0 13.75323 0.0 0.0 0.0 23.89" Properties=species:S:1:pos:R:3 entry_id=10 rank=8 energy=-572.8778076171875 parent_id=8 pbc="T T F"
Pd       0.00000000       0.00000000      10.00000000
Pd       2.75064538       0.00000000      10.00000000
Pd       5.50129076       0.00000000      10.00000000
Pd       8.25193614       0.00000000      10.00000000
Pd      11.00258152       0.00000000      10.00000000
Pd       0.00000000       2.75064538      10.00000000
Pd       2.75064538       2.75064538      10.00000000
Pd       5.50129076       2.75064538      10.00000000
Pd       8.25193614       2.75064538      10.00000000
Pd      11.00258152       2.75064538      10.00000000
Pd       0.00000000       5.50129076      10.00000000
Pd       2.75064538       5.50129076      10.00000000
Pd       5.50129076       5.50129076      10.00000000
Pd       8.25193614       5.50129076      10.00000000
Pd      11.00258152       5.50129076      10.00000000
Pd       0.00000000       8.25193614      10.00000000
Pd       2.75064538       8.25193614      10.00000000
Pd       5.50129076       8.25193614      10.00000000
Pd       8.25193614       8.25193614      10.00000000
Pd      11.00258152       8.25193614      10.00000000
Pd       0.00000000      11.00258152      10.00000000
Pd       2.75064538      11.00258152      10.00000000
Pd       5.50129076      11.00258152      10.00000000
Pd       8.25193614      11.00258152      10.00000000
Pd      11.00258152      11.00258152      10.00000000
Pd       1.37620828       1.36991624      11.99662620
Pd       4.11176707       1.37551648      12.01472205
Pd       6.83142628       1.36511538      12.06538993
Pd       9.57512057       1.39592898      11.89594876
Pd      12.38684272       1.37174114      11.92044161
Pd       1.35924609       4.14802161      11.96268352
Pd       4.09269872       4.10391574      11.99223932
Pd       6.80951238       4.09075404      12.00501912
Pd       9.56728621       4.13975942      11.94281254
Pd      12.36578195       4.13265160      11.93417299
Pd       1.37110082       6.89256210      11.94010419
Pd       4.13935064       6.87026939      11.96482277
Pd       6.87097415       6.85831372      11.95140951
Pd       9.64205429       6.82915781      11.94515418
Pd      12.39111484       6.85622887      11.94896407
Pd       1.39413405       9.64714439      11.95642388
Pd       4.11777592       9.66324146      11.95099537
Pd       6.89476706       9.64088005      11.95142944
Pd       9.64982872       9.59779534      11.89439304
Pd      12.42487279       9.60955999      11.94161946
Pd       1.38919626      12.41412381      12.00020737
Pd       4.11698144      12.42864697      11.98718750
Pd       6.86816975      12.39901143      11.97280504
Pd       9.63028672      12.36702810      11.91406436
Pd      12.42456656      12.33229791      11.95242640
Pd      13.70725868      13.72268313      14.00523683
Pd       2.79685392       0.09447535      14.12209127
Pd       5.55634299      13.66700570      14.05222871
Pd       8.32322401      13.68529433      14.10600400
Pd      11.01015530       0.05335164      13.73066259
Pd       7.77364758       2.76343720      14.26702555
Pd      11.25363787       2.69861557      14.69051848
Pd      13.74661318       2.79667608      13.88955661
Pd       2.60996963       2.82308189      14.00128641
Pd       5.20370600       2.63893640      14.20458472
Pd      13.71684234       5.54307176      13.98115295
Pd       2.68113687       5.56258762      13.99023617
Pd       5.47079812       5.46354497      13.95855552
Pd       8.21299880       5.47857555      14.01041528
Pd      10.95484368       5.50793966      13.94694088
Pd       0.04368642       8.26001421      13.93809257
Pd       2.83682697       8.30804290      13.94760790
Pd       5.58899756       8.23591149      13.99137776
Pd       8.35825755       8.23454429      13.94818706
Pd      11.08522594       8.28317979      13.95021596
Pd       0.04881635      10.94988113      14.01985778
Pd       2.77309598      11.04399810      13.93560013
Pd       5.48844684      10.95846647      13.91890339
Pd       8.21400166      10.95230277      13.91585950
Pd      11.03295952      11.03882526      13.96334425
Pd      12.27653431       6.59963247      16.27805901
Pd       9.47798910      10.69837001      16.26339247
Pd       1.49617422      12.37513223      16.16895636
Pd       1.45401660       7.16850767      15.92971462
Pd      12.43002488       9.51689427      16.29570884
Pd       8.25652484       1.50947849      16.71649372
Pd       4.49410778       0.72213232      16.51287405
Pd       5.80889395       9.69713809      16.41378479
Pd       4.20453385      11.91264767      16.07061489
Pd      11.16449404      13.44421840      16.25856822
Pd       0.25750626       4.43739399      16.47390171
Pd       3.09974603       4.09793679      16.55350832
Pd       9.34091228       4.61155029      16.84073531
Pd       2.40341938       9.74458583      16.38224020
Pd       7.03452904       6.98639676      15.97335393
Pd       6.84250437      12.49789619      16.35939968
Pd       9.90847935       8.05220307      16.29302516
Pd       6.28697362       4.30572688      16.42321762
Pd       0.66318389       1.48581154      16.32062677
Pd       4.28326545       7.23486908      16.29118538
O        7.77495466       3.40587778      17.33225547
O       11.35346230      11.20157709      16.07655649
O       13.19283631      13.60954465      16.02584651
O       10.48542515       3.06704837      17.47270540
O       10.24164058       2.02142753      16.61183523
O        4.09402326       9.00834865      17.05173454
O        9.65278081       2.72310381      13.54510553
O        1.57768643       2.99861852      17.20979792
O        9.09758623      13.51340242      16.10397352
O        0.61772455      10.60081474      16.04808211
O        2.44028446       0.40146680      16.27714125
O        1.74731843       5.56432555      17.12015928
O        4.58478874       5.32120003      15.90365115
O        8.71091097       6.56678103      16.95127826
O        4.62505875       2.76447790      16.26322000
O       12.90417195       2.82414732      15.87248480
O       11.01750452       5.16689556      15.92550637
O       13.51306067       7.96937342      16.87245038
O        6.42882253       0.56058100      16.98590387
O        7.51410225      10.64585184      16.03946220
