115
Lattice="13.75323 0.0 0.0 0.0 13.75323 0.0 0.0 0.0 23.89" Properties=species:S:1:pos:R:3 entry_id=0 rank=11 energy=-568.3948364257812 parent_id=-1 pbc="T T F"
Pd       0.00000000       0.00000000      10.00000000
Pd       2.75064538       0.00000000      10.00000000
Pd       5.50129076       0.00000000      10.00000000
Pd       8.25193614       0.00000000      10.00000000
Pd      11.00258152       0.00000000      10.00000000
Pd       0.00000000       2.75064538      10.00000000
Pd       2.75064538       2.75064538      10.00000000
Pd       5.50129076       2.75064538      10.00000000
Pd       8.25193614       2.75064538      10.00000000
Pd      11.00258152       2.75064538      10.00000000
Pd       0.00000000       5.50129076      10.00000000
Pd       2.75064538       5.50129076      10.00000000
Pd       5.50129076       5.50129076      10.00000000
Pd       8.25193614       5.50129076      10.00000000
Pd      11.00258152       5.50129076      10.00000000
Pd       0.00000000       8.25193614      10.00000000
Pd       2.75064538       8.25193614      10.00000000
Pd       5.50129076       8.25193614      10.00000000
Pd       8.25193614       8.25193614      10.00000000
Pd      11.00258152       8.25193614      10.00000000
Pd       0.00000000      11.00258152      10.00000000
Pd       2.75064538      11.00258152      10.00000000
Pd       5.50129076      11.00258152      10.00000000
Pd       8.25193614      11.00258152      10.00000000
Pd      11.00258152      11.00258152      10.00000000
Pd       1.34625012       1.38084115      12.08139684
Pd       4.09710531       1.39051829      12.02478229
Pd       6.82981671       1.36954650      12.02876894
Pd       9.57512057       1.39592898      11.89594876
Pd      12.38684272       1.37174114      11.92044161
Pd       1.36476938       4.11653286      11.98604481
Pd       4.10062728       4.12335952      12.03936176
Pd       6.80964786       4.10127378      12.01947660
Pd       9.56728621       4.13975942      11.94281254
Pd      12.36578195       4.13265160      11.93417299
Pd       1.37110082       6.89256210      11.94010419
Pd       4.13935064       6.87026939      11.96482277
Pd       6.87097415       6.85831372      11.95140951
Pd       9.64205429       6.82915781      11.94515418
Pd      12.39111484       6.85622887      11.94896407
Pd       1.35620777       9.70034641      11.99804465
Pd       4.11777592       9.66324146      11.95099537
Pd       6.89476706       9.64088005      11.95142944
Pd       9.64982872       9.59779534      11.89439304
Pd      12.42487279       9.60955999      11.94161946
Pd       1.38044467      12.43192988      12.05374606
Pd       4.10022659      12.39282799      12.00408977
Pd       6.86816975      12.39901143      11.97280504
Pd       9.63028672      12.36702810      11.91406436
Pd      12.44377280      12.34106715      11.97883315
Pd      13.68382816      13.72507792      14.13497010
Pd       2.74105517       0.13689031      14.18797306
Pd       5.57275134      13.58410474      14.03504531
Pd       8.32210586       0.10873069      14.02897406
Pd      11.00944744       0.06541569      13.76260396
Pd      13.56161061       2.74996245      13.99054371
Pd       2.60936202       2.89246218      14.11904401
Pd       5.38704645       2.66349697      14.17471302
Pd       8.19636116       2.74739059      13.98466574
Pd      10.87233592       2.71373936      13.87796169
Pd       0.02065511       5.52364957      13.94650233
Pd       2.72280614       5.58685341      14.00782716
Pd       5.45644833       5.48204683      14.06964042
Pd       8.27768010       5.48392337      14.03245622
Pd      11.00184784       5.39663090      13.97230957
Pd       0.04971687       8.32457756      13.97807193
Pd       2.75359712       8.29350970      13.88782305
Pd       5.49570085       8.26292172      13.94877597
Pd       8.40017926       8.22067965      13.82455367
Pd      11.08213486       8.19516257      13.93715169
Pd      13.58925004      10.96820444      14.50066395
Pd       2.74686692      11.08184375      14.01332989
Pd       5.55692561      10.90583907      13.95549635
Pd       8.34038054      11.01504189      13.92443872
Pd      11.03613515      10.88290192      13.82899238
Pd      12.43758252       6.59287623      16.10454931
Pd       8.74023282       9.62200004      16.23413707
Pd       2.03065005      12.72896909      16.64121018
Pd       1.41924128       7.01586607      16.25544216
Pd      11.87894775       9.39105685      16.30172040
Pd       8.32077916       1.37680026      16.95459335
Pd       4.98990365       0.37836480      17.18449469
Pd       5.65051212       9.65138289      17.05432905
Pd       4.39384578      11.78171379      16.13854094
Pd      10.86718940      12.42525208      15.91204716
Pd       0.84944871       4.28625767      16.30382875
Pd       3.88141552       4.40498192      16.31824331
Pd      11.15785548       3.15619991      16.54905919
Pd       2.99013849       9.51109278      16.27592678
Pd       7.25969396       7.14732311      16.87911385
Pd       6.97184305      11.97813750      16.16840382
Pd       9.73205206       6.98603608      15.97463867
Pd       7.44863425       3.72305659      16.42946505
Pd       1.07455910       1.49119143      16.04520968
Pd       4.09055154       7.08729917      15.90612202
O        9.23783489       3.11398701      17.10108184
O       10.39577986      10.53342653      16.84740252
O       12.86564543      12.54157559      15.65829004
O       11.40035622       1.29082746      17.22750449
O       10.36251553       0.44715691      17.13444375
O        5.25442091       7.65420370      17.37629096
O        4.40728528       1.01619461      15.22005753
O        2.39080361       1.64074284      17.53604922
O        8.88604428      12.46471395      15.43787889
O        1.53672813      10.98904634      15.78942637
O        3.00990750       0.38461495      17.70398660
O        2.31056137       5.38258025      17.01123974
O        6.98071122       5.58704272      15.66939368
O        7.53892882       8.89925877      17.78025791
O        5.52328310       3.35578534      16.08821957
O       13.14556772       2.98273466      16.01060850
O       11.03826749       5.17651944      16.05772217
O       13.54549646       8.25305227      16.06253773
O        6.93514880       0.02470067      17.15670739
O        7.07532477       8.65273222      15.26882164
