115
Lattice="13.75323 0.0 0.0 0.0 13.75323 0.0 0.0 0.0 23.89" Properties=species:S:1:pos:R:3 entry_id=4 rank=4 energy=-572.9825439453125 parent_id=3 pbc="T T F"
Pd       0.00000000       0.00000000      10.00000000
Pd       2.75064538       0.00000000      10.00000000
Pd       5.50129076       0.00000000      10.00000000
Pd       8.25193614       0.00000000      10.00000000
Pd      11.00258152       0.00000000      10.00000000
Pd       0.00000000       2.75064538      10.00000000
Pd       2.75064538       2.75064538      10.00000000
Pd       5.50129076       2.75064538      10.00000000
Pd       8.25193614       2.75064538      10.00000000
Pd      11.00258152       2.75064538      10.00000000
Pd       0.00000000       5.50129076      10.00000000
Pd       2.75064538       5.50129076      10.00000000
Pd       5.50129076       5.50129076      10.00000000
Pd       8.25193614       5.50129076      10.00000000
Pd      11.00258152       5.50129076      10.00000000
Pd       0.00000000       8.25193614      10.00000000
Pd       2.75064538       8.25193614      10.00000000
Pd       5.50129076       8.25193614      10.00000000
Pd       8.25193614       8.25193614      10.00000000
Pd      11.00258152       8.25193614      10.00000000
Pd       0.00000000      11.00258152      10.00000000
Pd       2.75064538      11.00258152      10.00000000
Pd       5.50129076      11.00258152      10.00000000
Pd       8.25193614      11.00258152      10.00000000
Pd      11.00258152      11.00258152      10.00000000
Pd       1.39039330       1.40742905      11.97062900
Pd       4.11559326       1.39177622      12.01753559
Pd       6.80788590       1.38437921      12.03334563
Pd       9.57512057       1.39592898      11.89594876
Pd      12.38684272       1.37174114      11.92044161
Pd       1.36393964       4.15904123      11.98183894
Pd       4.08716562       4.10079652      12.00978417
Pd       6.80571326       4.11131265      11.98848319
Pd       9.56728621       4.13975942      11.94281254
Pd      12.36578195       4.13265160      11.93417299
Pd       1.37110082       6.89256210      11.94010419
Pd       4.13935064       6.87026939      11.96482277
Pd       6.87097415       6.85831372      11.95140951
Pd       9.64205429       6.82915781      11.94515418
Pd      12.39111484       6.85622887      11.94896407
Pd       1.38935526       9.65049358      11.95600909
Pd       4.11777592       9.66324146      11.95099537
Pd       6.89476706       9.64088005      11.95142944
Pd       9.64982872       9.59779534      11.89439304
Pd      12.42487279       9.60955999      11.94161946
Pd       1.37852467      12.41433935      11.95750030
Pd       4.12401568      12.41375132      11.97970076
Pd       6.86816975      12.39901143      11.97280504
Pd       9.63028672      12.36702810      11.91406436
Pd      12.38050666      12.34974471      11.97193526
Pd       0.00432531       0.05209829      13.89771280
Pd       2.79527124       0.09038769      14.05675278
Pd       5.50701026      13.71584699      14.05975688
Pd       8.27363524       0.00248051      13.96010987
Pd      11.02016460      13.68726962      13.96588378
Pd       7.75055336       2.81357287      14.20941739
Pd      11.26115865       2.64351607      14.72514238
Pd      13.74324561       2.82769006      13.90948867
Pd       2.59503574       2.79939185      14.05620641
Pd       5.17911453       2.67103181      14.26773657
Pd      13.72557496       5.56825482      14.00043971
Pd       2.68473071       5.55544038      14.01125315
Pd       5.49695281       5.48529143      13.93821625
Pd       8.23484705       5.50714679      14.01604688
Pd      10.97455318       5.44316652      13.97683114
Pd       0.02450829       8.27269727      13.93243413
Pd       2.83853169       8.29914532      13.92439773
Pd       5.56513836       8.26059098      14.01161413
Pd       8.30621358       8.25457571      13.92008563
Pd      11.02768547       8.20943628      13.87557056
Pd      13.72206221      11.00354383      14.00254684
Pd       2.79126163      11.07769675      13.92200857
Pd       5.53233560      10.96775956      13.90779332
Pd       8.28312616      10.97610611      13.92443026
Pd      11.00501590      10.95528381      14.00015367
Pd      12.28993683       6.67310138      16.30399288
Pd       9.64081840      10.71801042      16.47212521
Pd       1.85659816      12.59488853      16.36429574
Pd       1.50364364       7.30936801      15.96638188
Pd      12.32850548       9.43004333      15.92599416
Pd       8.09457261       1.73473871      16.68636654
Pd       4.34034545       0.85016837      16.69566501
Pd       6.09237398       9.80595329      16.42703340
Pd       4.38615844      12.03801464      16.05387839
Pd      12.35259045      12.23898134      16.28069501
Pd       0.20132349       4.51377305      16.50261129
Pd       3.00923040       4.21121810      16.63425899
Pd       9.33225380       4.72218224      16.90410727
Pd       2.90016453       9.77371281      16.34667106
Pd       7.02087748       7.02204834      15.96658888
Pd       6.91937066      12.67232560      16.35968996
Pd       9.81565276       8.02250893      16.21982298
Pd       6.17768283       4.41886454      16.43364658
Pd       0.79497002       1.60967540      16.53030665
Pd       4.35356398       7.28267602      16.36066598
O        7.69760373       3.60122983      17.38417300
O       11.43369106      10.77463369      17.17623062
O       13.71037800      13.62512830      15.91874243
O       10.40488374       3.12643464      17.44423463
O       10.10539098       2.14279230      16.55331961
O        4.47326097       9.01781476      17.21684298
O        9.66731308       2.69536891      13.56355116
O        1.50150130       3.18745684      17.43054734
O        8.63705547      13.74638740      15.94660983
O        1.40508433      10.84101969      15.58262973
O        2.40777003       0.55288544      17.14756967
O        1.66044773       5.69188664      17.14800923
O        4.45705718       5.38824817      15.83456600
O        8.64094183       6.60527987      17.03145926
O        4.52009438       2.86624607      16.32731635
O       12.95364515       2.81817117      15.86565963
O       11.03091888       5.22975054      15.97842153
O       13.54286643       8.05625546      16.85235656
O        6.29788678       0.68640220      16.97712374
O        7.73423992      10.86680734      15.95037927
