115
Lattice="13.75323 0.0 0.0 0.0 13.75323 0.0 0.0 0.0 23.89" Properties=species:S:1:pos:R:3 entry_id=7 rank=0 energy=-573.0205688476562 parent_id=5 pbc="T T F"
Pd       0.00000000       0.00000000      10.00000000
Pd       2.75064538       0.00000000      10.00000000
Pd       5.50129076       0.00000000      10.00000000
Pd       8.25193614       0.00000000      10.00000000
Pd      11.00258152       0.00000000      10.00000000
Pd       0.00000000       2.75064538      10.00000000
Pd       2.75064538       2.75064538      10.00000000
Pd       5.50129076       2.75064538      10.00000000
Pd       8.25193614       2.75064538      10.00000000
Pd      11.00258152       2.75064538      10.00000000
Pd       0.00000000       5.50129076      10.00000000
Pd       2.75064538       5.50129076      10.00000000
Pd       5.50129076       5.50129076      10.00000000
Pd       8.25193614       5.50129076      10.00000000
Pd      11.00258152       5.50129076      10.00000000
Pd       0.00000000       8.25193614      10.00000000
Pd       2.75064538       8.25193614      10.00000000
Pd       5.50129076       8.25193614      10.00000000
Pd       8.25193614       8.25193614      10.00000000
Pd      11.00258152       8.25193614      10.00000000
Pd       0.00000000      11.00258152      10.00000000
Pd       2.75064538      11.00258152      10.00000000
Pd       5.50129076      11.00258152      10.00000000
Pd       8.25193614      11.00258152      10.00000000
Pd      11.00258152      11.00258152      10.00000000
Pd       1.39066953       1.39450232      11.96526752
Pd       4.11677379       1.39337507      12.00528635
Pd       6.81925057       1.38843120      12.03025139
Pd       9.57512057       1.39592898      11.89594876
Pd      12.38684272       1.37174114      11.92044161
Pd       1.36313382       4.15260465      11.95951730
Pd       4.09690630       4.11172497      11.99025727
Pd       6.81097686       4.11446469      11.99782597
Pd       9.56728621       4.13975942      11.94281254
Pd      12.36578195       4.13265160      11.93417299
Pd       1.37110082       6.89256210      11.94010419
Pd       4.13935064       6.87026939      11.96482277
Pd       6.87097415       6.85831372      11.95140951
Pd       9.64205429       6.82915781      11.94515418
Pd      12.39111484       6.85622887      11.94896407
Pd       1.37934931       9.64592882      11.97912402
Pd       4.11777592       9.66324146      11.95099537
Pd       6.89476706       9.64088005      11.95142944
Pd       9.64982872       9.59779534      11.89439304
Pd      12.42487279       9.60955999      11.94161946
Pd       1.38269885      12.39461888      11.97541059
Pd       4.11670583      12.43379736      11.97947137
Pd       6.86816975      12.39901143      11.97280504
Pd       9.63028672      12.36702810      11.91406436
Pd      12.39002426      12.32699509      11.98551483
Pd      13.75050306       0.03208645      13.86307194
Pd       2.80943506       0.10863178      14.07270109
Pd       5.54025588      13.71553696      14.04393155
Pd       8.28726232      13.74913167      13.97951169
Pd      11.01490224      13.70431976      13.94913011
Pd       7.77827299       2.80120588      14.22166764
Pd      11.26016895       2.66104939      14.74491308
Pd      13.73022502       2.82192865      13.89529515
Pd       2.60558474       2.82944908      14.00800696
Pd       5.20956882       2.69306972      14.20631617
Pd      13.74076283       5.54104258      13.96811402
Pd       2.69733043       5.55753220      13.97497572
Pd       5.48717906       5.49512892      13.95236191
Pd       8.21396607       5.50672163      14.03289113
Pd      10.94111766       5.44688705      13.93972748
Pd       0.07872091       8.27807344      13.97028984
Pd       2.88205979       8.33296630      13.93646186
Pd       5.60956538       8.26033002      14.00524364
Pd       8.35541185       8.24805983      13.92863732
Pd      11.07090741       8.25972738      13.93891702
Pd       0.00406620      10.98002076      14.11135245
Pd       2.77009743      11.05986820      13.93000253
Pd       5.50115975      10.98001846      13.88816655
Pd       8.27077925      10.97369081      13.90488447
Pd      11.00243804      10.96204598      14.02673067
Pd      12.22966663       6.63321372      16.07014764
Pd       9.44913403      10.83294957      16.47302785
Pd       1.64669469      12.43073020      16.18197279
Pd       1.71098480       7.23372206      15.99801369
Pd      12.25381487       9.59377986      16.44861928
Pd       8.09790662       1.71760171      16.72755241
Pd       4.47633013       0.82485531      16.55486352
Pd       5.93462657       9.83701663      16.39119496
Pd       4.28681564      12.00056506      16.03403770
Pd      12.09811965      12.41981640      16.24204675
Pd       0.24082505       4.51901134      16.50072311
Pd       3.08495909       4.19841405      16.58968708
Pd       9.31762657       4.73671006      16.91433683
Pd       2.59125681       9.81076548      16.42803527
Pd       7.07175423       7.07538588      15.99810058
Pd       6.84268560      12.69001316      16.41696253
Pd       9.86824205       8.15682804      16.30811299
Pd       6.24212091       4.44412848      16.45426160
Pd       0.77205343       1.62623863      16.34358839
Pd       4.37560649       7.32652030      16.36153715
O        7.71511922       3.58736496      17.42418224
O       11.18590014      11.02641880      17.26438126
O       13.57926496      13.66806428      15.87781856
O       10.38582103       3.13306182      17.46706195
O       10.09735065       2.15251467      16.56753286
O        4.28413591       9.10220928      17.13276963
O        9.68291993       2.69186961      13.56406748
O        1.58747925       3.12030036      17.30208865
O        8.60019788      13.71595755      15.97759270
O        0.83217910      10.64692712      16.07311921
O        2.49939342       0.50939334      16.24473561
O        1.72703658       5.64313469      17.17715179
O        4.54716467       5.42508994      15.87960823
O        8.71714866       6.66842860      17.02435978
O        4.60093712       2.86684334      16.24823705
O       12.91948278       2.85869339      15.90915943
O       11.00078998       5.15729750      15.94819957
O       13.50426186       8.10326621      16.06684245
O        6.33771696       0.70199082      17.15977155
O        7.56852692      10.87749871      15.88989085
