38
algorithm=ase_ga size=38 seed=0 index=0 energy=-120.5668914666467 step=1
Ar -0.10122345200895 0.5380884538837893 -0.4136382606300267
Ar 0.8042265916759814 -0.6626970684539093 0.5052890006052619
Ar 0.595448631285913 1.198262893393423 2.435603691813083
Ar -0.8643316937081796 1.095637116472284 0.1842366486392854
Ar 0.6469980563313665 2.728620928849679 -2.866958801579027
Ar -2.658896184422753 -3.157175705563027 2.099847419791741
Ar 0.968029668726016 0.1844247312342322 2.127737820839506
Ar 0.2807604252086823 -0.1867894435189282 1.331203881142308
Ar -2.10619602821594 0.04658477396920827 -0.8939728428420056
Ar 1.573200905761747 -0.08508929644755966 -0.003748902346795925
Ar -0.838362935748255 1.126354087969891 -0.9184027286279651
Ar -0.3335427829331054 -2.035675381226365 0.3352724234982818
Ar 0.502881059259821 0.8817039935022861 1.375850523420858
Ar 0.6161319613008196 -0.2695798350401125 -0.4949525639177845
Ar 0.794030406125199 -1.755211994513552 0.5101850106952326
Ar 0.394369782874861 -1.122150741121623 -1.188634985085582
Ar -0.2119125742639201 -0.2361835198765582 0.3247759463084186
Ar -0.1553887717224257 2.91388407598706 -2.102932757415342
Ar -0.914631568999753 -1.038560436136355 0.1283123547142678
Ar -1.139955050006634 0.08316147242413566 -0.2084043238151651
Ar -2.572431533865833 -3.028937194241829 0.9879013658633217
Ar -0.4031708040713136 -0.4840799021991818 -0.7592895063555118
Ar 0.8758579008641708 -1.124634571832346 1.477499045237452
Ar -1.867058258970784 0.8936992004334635 -0.2449092548044518
Ar 1.375135638956229 0.009646465866873524 1.126978979751542
Ar -1.445239890708883 -0.8211750488802778 -0.8135784018246177
Ar -0.6158989340277914 -1.590385924209172 -0.797125314681709
Ar -0.1025710809288067 -1.137797105605284 0.9347859642037614
Ar 0.1342265366626654 -1.186689432675153 -0.1378537054036178
Ar -2.730324033054934 0.510660500584883 2.88656651696708
Ar -1.090457410135172 0.1450221993809242 -1.31574627832011
Ar 1.225064832844801 -1.167703257800048 -0.3766658829689563
Ar 0.2265379709357083 -2.081316844385355 1.38439249569661
Ar -1.832488354415234 1.040623616919294 -1.340265337078767
Ar 0.9247195456739704 2.926615084354666 -1.797683179672697
Ar 0.6510432493391176 0.4165578452955082 0.4035867509002448
Ar -1.506446593685973 1.884380797256046 -0.5151587299268803
Ar 1.015070013586783 0.7473772566804243 -0.5750696316361565
38
algorithm=ase_ga size=38 seed=0 index=1 energy=-91.78040159018279 step=2
Ar -0.6336388650721979 1.947143334294476 -2.812612216178199
Ar -0.3838441614194996 -1.468021132402056 -0.8588805036543717
Ar -1.061074283162161 -1.306054709107962 0.01012606109521122
Ar 0.6861693292917875 -0.8016298987862021 1.010992697736566
Ar -1.26619411295014 2.812649867337857 -2.438717173415308
Ar 1.160617387624432 -1.055286869843143 0.04140226692233507
Ar -2.038291428683149 -1.345949166459147 1.757072574498267
Ar 1.85128607642635 -0.705813525534338 1.186401786011906
Ar 1.479745580185499 2.109912080790283 -2.164868053254726
Ar -2.971473017644358 -1.696440745724373 2.270802653935603
Ar -2.564100316807094 -0.6782132866645481 2.495658613975553
Ar -0.1701623093174997 1.445696080783024 -1.909584334180462
Ar 0.4649713456560133 2.027130315056419 -2.602463920238449
Ar 1.844617041273786 1.981505181467371 1.888173542492548
Ar -1.165851657218078 1.894464376357052 -1.841689424683862
Ar -0.4400708285416464 2.064567405508642 -1.010761041734962
Ar -1.650370926963629 -2.744301099714907 -4.351363017087298
Ar 0.5998231329215259 -1.849115507767119 -0.5058904233889132
Ar 0.6206775428079295 -1.858713937903991 0.6140927918309418
Ar -2.11701144432127 -0.2465174896458301 1.563339520634023
Ar -3.032024359535794 -0.8896073181006751 1.496186688279515
Ar -0.3165332871629334 -2.136693047792579 0.04316159307889849
Ar 1.181453643266519 0.05822171705901871 1.663814328041492
Ar -0.2723792462621648 2.574464700205425 -1.982831948699092
Ar -1.547125844199853 2.001565979939043 -0.8225278005218875
Ar -2.065426403702696 2.523556552336785 -1.680252512086339
Ar 1.823161902014407 0.8813484295539826 2.110437311043726
Ar 0.5920667294182731 2.110927438355411 -1.46515789792816
Ar -1.088928993472364 2.907577185811106 -1.341400304359751
Ar 2.134075594619047 0.3723626798419942 1.162003045021883
Ar -1.962343234914308 3.019498289321047 -0.6699190632276696
Ar 0.5066391923375857 -0.790840737610342 -0.8430560477213442
Ar 2.09674918457227 1.237818421885364 -2.861219614615045
Ar 0.03249590798525507 -1.071581684703494 0.1174779453250007
Ar 2.173727626165926 -0.184670938442536 2.130329415443542
Ar 0.8057121144656424 -3.165460042270306 2.736499147257991
Ar 0.7515673681230934 2.992116089823877 -2.122017475556857
Ar -0.9400550204059616 2.741685515867891 -0.2596651716806352
38
algorithm=ase_ga size=38 seed=0 index=2 energy=-136.4606028540433 step=3
Ar 0.2043189318202128 -1.918467696824248 0.1385100810703964
Ar -1.535687636749336 -0.2389734562389026 -0.9381358437115654
Ar -0.5677529131115273 0.3208571427876472 -1.124545353813281
Ar -0.8216288908997209 -0.01677529767953186 -0.09976486075077359
Ar -0.8942282783163753 -0.4024134055289765 -1.915003529096745
Ar 1.483219473812776 1.356070452264151 0.1494213437749094
Ar 1.260509853146939 -1.686189672456595 -0.331072180236059
Ar -1.99869264581257 -0.4891222546387119 -1.903697743591267
Ar -1.490772507042705 0.5220040943070682 -1.721796552296031
Ar -1.422601567730226 -1.279529442118376 -1.326137886306892
Ar -0.8681746749062788 -1.767745855401975 0.4650635780349013
Ar -0.3073952618801224 -0.9574719464416818 0.02698692934227184
Ar 1.2107261313694 0.5027117319972738 -0.4729863888922867
Ar 1.510195977315072 2.489458683291753 0.04812532945033068
Ar 1.816168534787376 -0.8628906253638027 0.217131960204588
Ar -1.00164952462074 -0.6753708536496988 0.7926409899136326
Ar 0.5360983022035306 1.910931614784594 0.05971141490292886
Ar -0.4065977788041396 -0.5180650956172763 1.715873852571399
Ar -0.6290791037601084 -1.779660851672297 -0.6299019824268108
Ar -2.910499960553696 3.32063663399304 3.164158880995613
Ar 1.137238060212935 0.01338500590869958 0.4844256127126167
Ar -1.361909716504075 -1.035193401070979 -0.2141332771914149
Ar 0.008375257089055755 -1.550098268837127 2.053030032373051
Ar -0.5699671649859519 -0.7323599032181579 -0.9489020413973277
Ar -0.9591330563002631 -1.500272152011792 1.528492799945061
Ar 0.3070383587430916 -0.3437540197608477 -1.448416813174203
Ar 0.7238032896314092 -0.9439129000985941 0.2574310573775508
Ar -1.410667758400049 0.8021733758986614 -0.6101013763823037
Ar 0.01851843412403347 -0.1594821810839584 0.6971016076174247
Ar 0.5824941430621666 2.723128256794201 -2.328810931167232
Ar -0.1976633856112799 -2.285110357062363 1.179645075699307
Ar 0.3577163641420925 -1.250076974665628 -0.7730660384045379
Ar 0.419451021281912 0.7419672910665194 -1.157752545240113
Ar 1.298175292443068 0.1339188250469272 -1.507677031168439
Ar 0.4082500657111475 0.8054431460365823 0.2354215928070784
Ar -0.007709780367112908 -1.233812989891544 1.007947353230146
Ar 0.2491391946608075 -0.1045884957851827 -0.3873597824990174
Ar 1.201492811718865 -0.5741746928863272 -0.659183307996292
38
algorithm=ase_ga size=38 seed=0 index=3 energy=-117.1179568389036 step=4
Ar -0.2534779596237836 -0.4313663915121504 -0.8541614395183931
Ar -0.01184641170622358 2.150633767769642 2.044962336928252
Ar -2.122645647087459 -1.272327289784624 -1.598365011276895
Ar -0.1134685218646699 -2.16200817986137 -0.2269756767914021
Ar 0.9019267357238681 -0.8230971624061629 0.3945702728119359
Ar 0.9385999840119327 -1.895278108981347 0.1917496931327834
Ar -1.215113674356739 -0.8961841410012396 -1.108844230631916
Ar 0.6433612651113688 -0.7976526797004829 -1.380472269988178
Ar 0.1685487672879726 3.376065004089541 -0.9787272296309731
Ar -1.734134157783731 -0.9481202479881983 2.615261084263758
Ar 1.908191389164248 0.347422709878682 1.895570810945135
Ar 1.649187058624066 -0.06381190047336745 -1.003897908689229
Ar 0.7216491712335633 -0.1672909962657852 -0.4602493219543737
Ar -1.121839803970113 -0.1744159507200866 -0.2574070770412108
Ar -0.7257752709204131 -1.225549502857663 -0.1861356934165035
Ar 1.411138548550778 -1.057154826080829 -0.5504018265591198
Ar -0.4057198767120799 -0.6729069754602253 -1.897401764828406
Ar -1.485044227746218 -0.5258528742852228 -2.127689253399017
Ar 0.3190099322394742 -0.5156010796661842 1.264748042372652
Ar 1.679621537774047 0.6533993215639624 0.8450832371715463
Ar -1.017339486682942 0.1531041459213799 -1.371085614063317
Ar 0.3441499224921568 -1.20490201957726 -0.4116746525441697
Ar -2.563969348247654 -1.700949136255906 2.684556923645223
Ar -0.6869277059626389 1.484397203365841 1.458437131063405
Ar 1.721248536467979 -0.1927879940594771 0.1162029833380952
Ar -1.985576760844082 -2.175245849238761 -2.232084658579129
Ar -1.090522741786663 -1.559564068508522 -1.982141473719585
Ar 0.9529858604022873 -1.44892564172009 1.268555565453004
Ar 0.720942351587436 0.2388611240458564 0.5471807472257821
Ar -1.110000553671808 2.371355627757635 2.011762644135384
Ar 1.441927205292798 -0.3859278475669319 1.20612735523464
Ar 0.8306823493501949 0.4459943635882616 1.61356687153533
Ar -0.1197027589481417 -0.4028835896429422 0.2364923048496723
Ar -1.879781387269587 -1.696540676935991 1.792027566099077
Ar 1.057083445846903 2.444848085670401 2.207078224490442
Ar 0.01576488567356345 -1.428929438265305 0.6332458586146251
Ar 1.310640284938164 0.7515490037308249 -0.2472987950010285
Ar -0.3066961220246817 -1.524419924630028 -1.195194908752115
38
algorithm=ase_ga size=38 seed=0 index=4 energy=-105.8830920541965 step=5
Ar 2.528399882849521 0.5937828726405664 2.991113887815352
Ar 0.7589616882999251 1.585072166052675 -2.023908256673297
Ar 2.374231275166797 -2.008273648159389 -1.364042320231776
Ar -0.2107709659374841 1.94010089635069 -1.691809374674557
Ar 0.6070452139975651 2.65741184292876 -1.62487368949273
Ar 0.7509353038416896 -2.652761695620862 -0.7742734638820506
Ar -2.209945905641807 2.246229963994735 -0.8841807670912905
Ar 2.360229697031433 1.598912181005653 2.518816921493892
Ar -0.8323731095659093 -2.669853967780994 0.4530292986686924
Ar -1.172152793198042 2.205784909257607 -1.263694434686073
Ar -0.1973328554541182 2.590791118989304 -0.8103771018709368
Ar -0.8901970110666059 -1.703275268306905 -0.1385691760141588
Ar 0.3413953042008399 0.918162451116234 -0.3035621776577793
Ar 0.6836800361296385 -1.709015589224201 0.7818909410452107
Ar 1.795563658541717 -2.383638009120556 -0.4887949151881398
Ar 0.1134726512051226 0.9083524752819717 -1.406518993400197
Ar 0.3798651855198376 1.067092526890745 2.838867879393721
Ar -0.961100284845919 1.110463599640815 -1.602193787381221
Ar 0.2132200708503205 -1.907998362368288 1.771612055172521
Ar -0.4896236787967558 1.526689735171428 -0.7007162505936558
Ar 1.94757616699206 -1.281923196080456 -0.6258863355136941
Ar 0.5270944053600806 1.867681663543584 2.073194358792738
Ar 1.053986821825383 -2.633633019902281 0.3018137627677748
Ar -0.512283055735365 1.507271705497655 2.327475169949718
Ar -0.2245315564753775 1.157234806599577 -2.449556813076873
Ar -0.4179017451610555 -1.72885377021298 0.8697549500916535
Ar -1.090956835030265 1.909304938598127 -2.357841976379248
Ar -1.58137975277363 1.335836845456023 -0.7041736374602812
Ar 0.1542794550929492 1.975672718479737 0.07132555724300628
Ar 1.482938599801879 0.9566177202047389 2.768603122156943
Ar 0.9710876141184356 -1.666596588092725 -0.2798419289733799
Ar 1.271073977835487 -1.840182767502171 -1.330325432541023
Ar 0.05750211715221461 -1.126486127791405 0.05761695886921925
Ar 0.06829462536819594 -2.232949397571195 -0.01591272354460939
Ar 0.06891097118230236 2.119107001897461 3.066896306795706
Ar 0.1628383754429108 -2.689097971680538 0.9797387785788311
Ar 0.5838851088319478 1.795525669549265 -0.9366337366589667
Ar -1.958481364826223 1.570221858978276 -1.737426149863252
38
algorithm=ase_ga size=38 seed=0 index=5 energy=-95.84140165632149 step=6
Ar -1.46843018651497 2.579687470008877 -1.754729478539832
Ar 2.587847482345748 -0.2443516832976683 0.3980147541654108
Ar 2.334284282791417 -0.2308539387826861 -0.6827089986818751
Ar -2.214155959522909 -2.370166738695879 1.006629276075591
Ar -1.226259331879758 -2.746805524705614 1.372272396645835
Ar -1.696733481975246 -1.169312569208153 -0.7302235447810027
Ar 1.985243410695549 0.5968075466241478 -0.01352097076891314
Ar -0.9332539880991196 -1.748797025832525 -0.1306854380265891
Ar -1.637642809562786 -2.305331090378987 -0.7811153762319158
Ar 3.308547601228363 3.186618155154953 -2.191799404707532
Ar -2.226111695572419 -1.229467778162277 1.033966495089909
Ar -0.4216192902838138 -2.405823162797807 0.6338541639183601
Ar -2.491523838602542 -0.7910402673482618 0.009704086463508036
Ar 1.908024320759549 -0.9632154787665538 0.9155628818635854
Ar 2.338170182382817 2.89345592639231 -2.673366441140764
Ar -0.9954094466186973 2.695625296489044 -0.7432433647653601
Ar 1.728867852631717 0.1486733186427309 0.9921943789480093
Ar -0.8353934083663459 -1.666427907524135 -1.233477754081573
Ar -1.767901604512699 -1.8613035710814 1.879482647382752
Ar 1.091934235099076 0.950707262475887 0.5609182109226666
Ar 1.141532976985169 1.36085594553222 1.604438400104279
Ar 3.01821522206295 2.103879405362168 -2.255692044912262
Ar -1.427509397684076 -2.678072865206418 0.2662109246870297
Ar 2.007700586888251 -2.022196089216381 -0.7781263978171076
Ar -1.266659627570946 -1.756812269696327 0.9070887613986478
Ar -1.735176446534523 -0.09571232733920411 -0.4382399542417967
Ar 0.9618098245753123 2.207069468942817 2.339408139569954
Ar -2.011299488499961 2.227290104021295 -0.837590849823047
Ar -1.429988215978949 -0.8579563737560518 0.313820072809804
Ar 2.000705689251375 -0.4326205171375231 -1.727239818647263
Ar 2.302823383598301 -1.187042281541294 -0.1013103822578401
Ar 1.509974703408525 -0.4025713683793083 0.04380710639757696
Ar 3.079084118118033 -1.898198457013936 -0.4582925984233129
Ar 0.3024691802717165 2.093128472822307 1.441297327497545
Ar -2.037837779251259 -1.783043816599553 0.09953787304154138
Ar 1.546681584259218 -1.009288894101523 -0.8902840720630703
Ar 2.466358177433498 2.792817969197538 -1.562660986184057
Ar 2.622004650976788 -1.181198202584854 -1.178767833056056
38
algorithm=ase_ga size=38 seed=0 index=6 energy=-137.8166925202615 step=7
Ar 1.884623470783161 0.245086119771025 1.443876509726802
Ar -2.652353762893128 -2.387798735325413 1.132530206335009
Ar 0.1138756624653862 -0.001400216836239576 -0.6789837569201748
Ar 0.7652139109793894 -0.151222002164847 1.680008407044029
Ar -0.03558874588555337 0.02962632220760886 0.9123263473521119
Ar 1.663956887005591 1.25330802140327 -0.8406993143703632
Ar 1.993659679340927 1.82450017533948 -1.723378915168324
Ar 1.414334772704503 1.29445632434317 0.2661785595654781
Ar 0.5913966265921589 0.830648514184665 -1.32089968053496
Ar 1.253093310173727 -0.525774680911496 -0.7460270555640381
Ar 1.311573051299193 2.30013310107064 -0.9640229434092774
Ar 0.3424679177755769 0.8588183642979456 1.516183260357939
Ar 1.059152677397722 0.4903290894836083 -0.3977911985762077
Ar 0.2617639490909814 0.8049864589414044 0.2209891953866797
Ar 0.6551766785704302 1.560077635710947 -0.473875398985924
Ar -0.4996292461683393 1.039610257640028 -1.709902411705762
Ar -0.2736851581132578 1.818566858339951 0.06115373226091161
Ar 0.1116263982076464 -1.747600755698411 0.2443649843106804
Ar -0.9652647493261155 1.780208568003752 -0.9327974128452814
Ar -0.6848297380677734 0.2925698117378322 0.04298666732484951
Ar 1.36747179063574 1.260932881662359 1.393666178737358
Ar -1.19616100947643 1.243471627737315 0.006760362051360431
Ar -0.5323058118347381 1.075107384102266 0.8752217455282949
Ar 1.146129312752374 -1.31593095934299 0.1226995355473441
Ar -2.899142743333979 -2.203382070740572 2.211934306293628
Ar 0.3776993915220865 -0.9909746006996093 1.000635160054789
Ar -1.233865465844307 0.629348132583284 -0.923602243622653
Ar -0.8268969401178157 2.073027060762514 -1.993368607697278
Ar 0.6738266431792315 -0.3515898235357643 0.1704201468725713
Ar 1.054833182373575 0.4081335443003599 0.7881424300767897
Ar -1.587757477370969 1.301415281060066 -1.73926903165175
Ar 0.3328617285849748 -1.097601554307926 -0.6198713625522245
Ar 1.799308760258906 -0.09519327752207375 0.134406299609684
Ar -0.2659094230278075 1.013999590801691 -0.6619507707330978
Ar -2.004887633730173 1.428288925090331 -0.7198499420312475
Ar 1.41654795091017 -0.6564597017423988 0.97177097160933
Ar -0.3445617828152905 -0.7322149566929234 0.1608942277547134
Ar 0.5178225636384542 1.676166504404048 0.8020421454852243
38
algorithm=ase_ga size=38 seed=0 index=7 energy=-129.9143315885351 step=8
Ar -1.947307012825402 0.08776674191311397 -0.6710745820788182
Ar 1.32735681586046 1.492252691112383 0.665132196671414
Ar -0.1074447990946688 -2.001650158537888 -1.243749801287611
Ar 0.3125942100695658 1.076965190154588 0.9575840484669088
Ar -0.7884143548448046 -1.666542051250633 -0.3998783663629967
Ar 2.17677464534473 -1.812118279363839 -0.7496512983146283
Ar 2.440717984733369 -2.214149276742971 0.2569235646875337
Ar 2.007409258463141 -1.19091278870612 0.2807344297527581
Ar 1.375067180878008 -2.05114276405826 -0.03663108890297625
Ar 1.055195198995802 0.4633113333927747 0.4369604561361708
Ar -1.129754546436743 -0.5968088113688019 -0.3916882615751027
Ar -0.2823979082857884 0.2821118013611918 1.429144986902073
Ar 0.8954461827551262 -1.134310971148117 0.3017696883876324
Ar -0.124767337024592 -0.8760456886649974 -0.04518310743406812
Ar 0.7430734874855546 -0.2458047534212985 -0.3149791668610597
Ar 0.8312118596583703 0.2630870109990904 1.530662295187962
Ar -0.9757331157179412 0.5068292833941159 -0.3538650846561011
Ar -0.7287489262163509 -0.176391479184373 0.5287894553790065
Ar -0.6591556158765031 -1.029011422063757 -1.29071965466298
Ar 0.3495702416973986 -0.308871991176934 0.7488551560918559
Ar 2.495976584408489 1.599895533332373 -2.987840498265227
Ar -0.2185765420161963 -0.1243872356618355 -0.8355890903633102
Ar 2.127224563651355 1.641878243629467 1.432235520686925
Ar 0.7960804157771523 2.130378879163816 -2.68350728440068
Ar -0.7880213843046052 0.920971590833805 0.6707744769689336
Ar 0.2995960016110815 -1.87752522189464 -0.2331824667296586
Ar 0.3961424362718683 -1.055024680456065 -0.9810990968725279
Ar 0.02844946421527885 0.4813505589297507 0.06804936210415219
Ar 1.814826707924123 -0.1561020190153463 -0.06275387950886283
Ar 1.106445218348193 1.298379181578526 1.727154436278944
Ar 1.841240469352773 2.496635252078625 -2.846222560140116
Ar 1.433310110014809 -1.031386664162561 -0.6427309465190957
Ar 1.656233018461173 1.560964810098796 -2.247754911804696
Ar 1.032176178085631 -1.961754569951759 -1.080458597912572
Ar 1.453106470950011 -0.4405569844864793 0.9364778287774864
Ar 1.832193102232405 0.5984317985489522 1.183028319679358
Ar -2.106460114888276 -0.7049530435724114 0.1065764118901555
Ar -1.715127461603041 0.2871896167499058 0.4209929050697458
38
algorithm=ase_ga size=38 seed=0 index=8 energy=-130.4015879220015 step=9
Ar 1.429941054520343 1.863662865809768 1.759998687194032
Ar -0.02112968201620277 -1.236149128911006 -2.503950912460581
Ar 0.2456243485698508 -0.7499037481020778 0.2881966636776821
Ar -0.3121709078086947 0.2920833907830423 0.3332370978330519
Ar 1.53832350247443 0.4566364789792324 0.5397307911014181
Ar 0.4647014128123612 0.04772248468010949 1.96990217367799
Ar -1.008273915084016 -1.251686047226737 -1.866691091864184
Ar 2.085206463078116 -2.501242692568304 -0.2050841038895551
Ar -0.8624621027911241 -1.13710835481907 -0.7950314618319888
Ar 1.151910024752328 -0.7857894952194664 2.319496665814853
Ar -1.23233524490824 0.07985235765786439 -0.3421858246646096
Ar 0.7340609333873573 2.026770686534777 0.05764598988778405
Ar -0.2694953928813811 -1.429587227087016 0.9669969621659692
Ar 0.8230339379008831 -1.636055257111505 0.6273958865959002
Ar 1.90176046554422 -1.55363323351975 0.3490376698820544
Ar 1.482273679993932 1.537890213748259 0.7000628010368681
Ar -1.039946392556961 -0.2239592389821569 -1.387103511273603
Ar -0.1494011699795517 -1.854191697662023 -1.543775339417878
Ar 0.5944702142600914 -0.8841641380197484 1.377901579703641
Ar 1.8230698692503 2.076050428734574 -0.2078281955349978
Ar 0.7466805611723174 0.1170259702525755 -0.185038784000403
Ar -0.652933441874465 -2.128731277556857 -2.518694042764928
Ar -0.07373063036032909 -0.7514937943754318 -1.531390617368068
Ar -0.08340247126177398 0.7999043928879178 1.322021159028
Ar -0.3526954531875274 -0.3341779109093385 1.238774414537878
Ar 0.5303667110548591 1.012863249998816 0.4213315175551059
Ar 1.026119397050248 0.8746606822534342 1.455613025160357
Ar -0.2202005903340697 -0.268696157750972 -0.5836946444308452
Ar 0.5914998403165672 0.07040417189169655 0.8905011972598039
Ar 0.484068167320289 1.803706264816205 1.163793318617546
Ar -0.8309560465599661 -0.7209956708967921 0.2844006642413085
Ar 1.305438392664148 1.098774235462544 -0.3366522141607665
Ar -1.762698667913674 -0.5110531760714417 -2.198351335225434
Ar 1.477452200817716 -0.1460300967232493 1.483805175563229
Ar 1.615785827899436 -1.251969685987158 1.380890552136066
Ar 1.315539685942768 -0.6333438836656404 0.4945597035327908
Ar 2.974157843445415 1.669393285494952 -2.339263357630428
Ar -0.6716226704263745 -0.3454348848142964 -2.417488436831547
38
algorithm=ase_ga size=38 seed=0 index=9 energy=-125.2282131095228 step=10
Ar -1.414860168741891 0.04696861729499614 0.5934122173499439
Ar -1.532572404494363 -1.250962455144813 -1.727110007576548
Ar -0.5687885380151575 -0.8851991152761634 -2.134153374565633
Ar -0.777966537617181 -0.8808379542061153 2.097275589180326
Ar 3.571456679858951 -3.115945649090956 2.427066479594724
Ar 0.05020908745237065 1.158536387173091 0.6024354607595014
Ar -0.2085393311775342 0.9110650178585246 -0.4819422727792851
Ar 0.6984061019723139 0.3503327549629592 0.1433509118430378
Ar 1.102895996686454 1.242732446030085 2.343715006345365
Ar -1.428499400309567 -0.02166839978809169 1.73760516705075
Ar 0.1512076916771792 1.121641228801063 1.781755227237219
Ar -1.884104388879573 -0.9657612396125582 2.125711088981612
Ar 0.7656004744766222 0.7280739227129613 -0.8990178772708161
Ar -0.3671039901654987 0.1930752331232375 0.3063663463500214
Ar -0.3641422009396253 0.1541614671919958 2.103445230211945
Ar -0.7371891523824466 0.7040895460684087 1.231007162077566
Ar 2.302593499366926 -3.051838725654506 -0.1190801918673278
Ar 0.4578827042915349 -0.5736053922837051 -2.348043885128415
Ar -1.242012887129016 -1.829234383083443 1.780337087929157
Ar -1.392485849640557 -1.516345878842902 -0.6463974083110108
Ar 0.3129896834755873 0.2454638633883759 1.173017056120079
Ar -1.555550184944943 2.735994299104636 -3.206191064545323
Ar -0.5912372349606999 -1.746815335232586 -1.409311790699821
Ar 0.08486687321267078 -0.1813146447817006 -0.5972578075943039
Ar -0.8066149025386626 -0.6877368887903846 -1.073655206826539
Ar 0.2712105855811341 -0.671258399830124 0.5385043735392578
Ar -0.5750669833482127 -0.37179638506607 1.17004342781313
Ar 0.2830327861993024 -0.7133920009454726 1.734009395590537
Ar -1.452583004197947 -0.9723387403222669 1.105246102327037
Ar 0.221387215430867 -1.669383943948632 -2.199856128910538
Ar 0.2041000126008289 -0.9986835106668709 -1.325200955194975
Ar -0.160201407780342 0.04186707997490224 -1.626136825225898
Ar -0.3891156533603734 -1.425326276756986 1.171801517436794
Ar 1.180388340712658 -1.21855094213133 -1.80593258114338
Ar 0.9256673082684056 -0.2009136598262519 -1.417722564630297
Ar -1.043046910157544 1.054633368196853 0.2288452377572044
Ar -1.06855590721607 0.2037664061968002 -0.5115668675441625
Ar 0.7291195350387034 0.2086999365709745 2.190043758011272
38
algorithm=ase_ga size=38 seed=0 index=10 energy=-159.6487924769637 step=11
Ar 1.561867231326021 0.4337028401952562 0.5297574304185798
Ar -1.483914046371926 -1.76130729436913 -0.0596965281694895
Ar 0.3899679617408445 -0.1433872078632894 1.537997079056708
Ar 1.187379434983557 1.467136027134978 0.3581519526757482
Ar 0.752931516040343 1.716843165203088 -0.6312604010544359
Ar 0.2816079735584713 0.9455485506145013 0.00333817016345395
Ar -0.306870360374387 1.442562928621724 -0.7653377774539994
Ar -0.5521995542177441 0.2237040321523647 -0.05211219013291816
Ar 0.7853769372958043 0.8338867953596474 1.17046544230652
Ar -0.7251370569134397 1.322503314670863 0.2511814061789454
Ar -0.2577985756764147 0.6433910749797284 0.9566113736546826
Ar 0.3685085163542459 -1.144981029352779 1.030438764752756
Ar 0.505798354315336 0.01432798913745937 0.4772542463722385
Ar -1.298881141589681 0.9785052958211777 -0.6029987734523529
Ar 1.295818301714178 -0.5534696178048971 0.9447344775358807
Ar 0.1762199784008941 1.686301589264247 0.7928232508093784
Ar 0.2383970738424203 -1.98983988739364 0.2538221183519045
Ar -1.382141186053523 -0.08551781040345637 -0.768172215693386
Ar -0.9212688620683033 -0.364056688844909 -1.78926292965321
Ar 1.068648366263815 -1.314186334939973 0.158793167399031
Ar -2.009317886842565 -0.4255860755060804 -1.600756410775261
Ar -1.478494705683828 0.5869060978384573 -1.639459661855732
Ar -1.357915024302737 -1.155904828733153 -1.021328109288818
Ar -0.6362513048061582 -1.501313099453659 0.6606062882926309
Ar -0.4648029513556777 -0.4185822224534946 0.874175081214369
Ar 1.23975132477567 0.7265094770757063 -0.4750589660370446
Ar 1.305163935551141 -0.3388092212512587 -0.1979944864453285
Ar -0.4810488093997105 -1.626322062432602 -0.4929204809394811
Ar -1.047938148050518 -0.7577974243363482 0.0009065824471638555
Ar -0.4220678374463288 -0.6126769193434504 -0.8750304939995798
Ar 0.2137013852551956 -0.2107856172056012 -1.662680034128
Ar 0.07166410684078323 -0.8545841851489357 0.03764648323493276
Ar -0.4961355652027405 0.4454088677623541 -1.14127966058415
Ar 0.24679761006117 1.863142029201192 -1.625945053739596
Ar 0.5123205363695327 0.843617160328225 -1.292815614925933
Ar 1.225958035340401 -0.05441971747495543 -1.265615793189315
Ar 0.3696899980980575 0.04342195416667156 -0.5871816899687013
Ar 0.6448370134141452 -0.9713507783788051 -0.8796034094822948
38
algorithm=ase_ga size=38 seed=0 index=11 energy=-142.1798541653998 step=12
Ar -0.9710659842439332 -0.4809444494126546 -0.8107168014285189
Ar 1.517415667559407 0.296859246787267 1.535241937341577
Ar -1.203179828282809 -1.159849790488193 0.9235524334004533
Ar 0.4290132601959649 -0.01559273007418383 1.437657248839496
Ar -0.6060504263923796 -0.2316015148986614 0.9823404875485102
Ar 0.7450919700834352 1.11434999893081 1.403702900375504
Ar 0.4576533358498086 0.5369260081358526 -0.3405601154025382
Ar -0.4854137305964191 -0.9665906525341292 0.1065076325574334
Ar -0.520749544232831 0.1312480704461217 -0.0532372778648253
Ar 1.718165780209959 1.201090580891565 0.7976127182843201
Ar -0.37976036742419 0.4641477957904485 -1.06852047652715
Ar -0.04744107265505632 0.7055203382792063 0.735481032045044
Ar 0.7239688107436201 -1.22658698905166 0.06264219131380321
Ar -2.124085008935885 -1.669030811280882 1.331290361604341
Ar 0.1380355868538442 -1.093596998510999 1.074302947582038
Ar 0.307783102359703 -0.2990509641917448 0.3935720278393781
Ar 0.9972180130839985 0.4405830221552129 0.6051926557907253
Ar 1.217568652912399 -0.6097877399103059 0.890280097291786
Ar -1.448442262113459 -0.3364496250139525 0.2087417208210453
Ar 0.6796411306454191 1.422793623494584 0.2869148306415868
Ar -1.374558836924088 0.5710327515713584 -0.5144294782632189
Ar 2.014244084398247 0.1201143669152692 0.5488574048310787
Ar 2.239498888399799 0.02603255960679043 -0.508554820690085
Ar 1.518764341482012 0.8145419682600219 -0.2632972456140444
Ar 3.274634693171656 3.072442125551387 -2.104675303171935
Ar 2.306381297629326 2.823942380436608 -2.614082044456059
Ar -0.4313878011278366 1.199115943678987 -0.1763462565344364
Ar 0.1508921909945056 -0.4615358433463709 -0.6693995490945464
Ar 2.949757737100019 2.001892580034206 -2.200730417837514
Ar 1.570500507663428 -1.762811146054264 -0.4341278497352401
Ar -1.159628093941379 0.6937868304943473 0.6009366856668907
Ar 1.323763538492984 0.0750944848120116 -1.184480479818316
Ar 1.984387974882607 -0.9164822264493124 0.1382684524794871
Ar 1.206299618640062 -0.2686316207522165 -0.1888828585381437
Ar 2.681729379502706 -1.609279441902155 -0.3655312344940955
Ar 1.002645252181318 -1.008364155681427 -1.004890353014689
Ar 2.405583433664856 2.691820583170936 -1.503281472223563
Ar 2.071792302548982 -0.9190308803478831 -0.9911843925394618
38
algorithm=ase_ga size=38 seed=0 index=12 energy=-156.5102590462513 step=13
Ar 0.9123007662992927 1.040882220401709 1.479553895279806
Ar 0.1952383063479691 -0.6794649472889883 0.4631122180596144
Ar -0.4297739947497894 0.1602223582788982 0.200477734038314
Ar 1.704826834864464 0.2901926188158628 0.1012476808676013
Ar 0.3303363019828474 0.2103552645496011 1.869347500865933
Ar 0.732737731599184 -2.188126956590594 -0.2503851583282417
Ar 1.400882297507135 -0.01703008173841869 1.477187174436009
Ar -0.3449967712414625 -1.363255948240825 1.099688609675885
Ar 0.6740174325976755 -1.607381823115912 0.7167673609066593
Ar 1.641499115521548 -1.615216264465564 0.2276934655586307
Ar 1.202604736075325 1.186005785811712 0.4332008318786552
Ar 0.5757131586066162 -0.7657525165486614 1.450974841952715
Ar -0.2184394536302257 0.8461126380361664 1.11156335623696
Ar -0.4293143499687246 -0.249981463167349 1.219559996722503
Ar 0.1980919433299388 0.9853710143307838 0.07434037623489856
Ar 0.612946219890126 0.2517631831484172 0.7855020769719552
Ar 0.3542063996303484 1.765352671489506 0.8377949947742389
Ar -0.897039137227143 -0.8120825829817621 0.2832430367584382
Ar 1.551471589636709 -1.287685231749344 1.33903594107628
Ar 1.260293857127789 -0.6098263109162008 0.5507678066698894
Ar -0.1344381646056331 -0.6145047794847565 -0.5179102343669206
Ar -1.717673168830566 -1.766853497837154 -1.359221258343748
Ar -0.1738288819329081 -1.597996923195939 -0.006219370988748863
Ar -0.9523637981260371 -1.258652387685873 -0.7412715028014317
Ar 0.6626487390512773 -0.5099376305962257 -1.238171159276593
Ar 0.6759009780700187 1.916662520108671 -0.2397719060116937
Ar 1.532425644925784 0.1269642786034692 -1.021029453589598
Ar 0.7315764611641599 -0.0178655173262105 -0.2430184788096583