13
algorithm=ase_ga size=13 seed=1 index=0 energy=-28.05246606101981 step=1
Ar -0.7400047245069802 1.904590471786645 -1.845781299990853
Ar -0.3569878573537847 -0.5531891680808079 1.2287015983993
Ar -0.3908215496443715 1.049767660684196 2.086210434926509
Ar -0.9305043600625879 -0.6840212436863424 2.186095292604296
Ar -1.594277552440357 1.224806293089703 -1.598715823726432
Ar -1.867290051345194 -0.07402272333894323 2.223877066412846
Ar -0.9410080420042463 0.3081209041544952 2.71983649965808
Ar -0.2892090288119983 2.296210065386072 -0.8988473068603223
Ar -0.698151201812258 1.254206599912443 -0.9272810418476133
Ar -1.008656345305859 0.2659446764928847 1.602836774513477
Ar -0.04640513424502386 -0.01378330829559426 2.14936973825504
Ar 0.6937928718934561 0.7997062715913096 1.979689332246944
Ar -0.01944593845089679 0.5168314468069061 1.165266788282924
13
algorithm=ase_ga size=13 seed=1 index=1 energy=-23.55115380651309 step=2
Ar -2.713308333112297 2.485409215938116 -1.529213509564148
Ar -2.698852638728298 -0.1793081591496326 0.8417138695852405
Ar 1.092250128402998 0.8599356215584085 -0.6087503294703472
Ar 1.253238930496404 0.4389894685088298 -1.612757205056972
Ar -1.813618830733142 -0.8267754503388145 1.080603513390517
Ar 1.699963874340818 1.434966408617895 -1.346292699538414
Ar -1.952409072265929 -0.4271808835274111 0.04090043033028565
Ar 2.158476371565707 0.5315315727037305 -0.9156250580900189
Ar -2.05761110612881 2.503636464804366 -0.618362279219803
Ar 1.3827729409819 -0.2146313552166373 -0.6921744891020403
Ar 1.802000033413979 0.4365744540471056 0.1276433711096807
Ar 2.262552675939804 0.7079585405526956 -2.003651197398871
Ar 2.043211511916635 -0.3335993236311665 -1.612263555309646
13
algorithm=ase_ga size=13 seed=1 index=2 energy=-27.17832435791615 step=3
Ar 0.7161684510568522 -0.4109690814560509 0.2287540315081624
Ar -0.3301744177471737 -1.80730267363541 -1.095405431544785
Ar 0.08147596374685376 -1.232348292903362 0.6330178604770325
Ar -1.378197917106345 -2.032575001237203 -0.775895413217714
Ar 0.7460410172309516 -0.9994278722054196 -2.090350580009089
Ar -1.066847482888046 -0.962694597936124 -0.9914238386863724
Ar -2.536872599981752 0.662910487353211 0.3916724266278537
Ar -2.351112048397878 1.274692301563337 1.314472193271966
Ar 0.3508640941006482 -1.229107812968761 -0.4426984463637126
Ar -0.3505782442355879 -0.4354917928074875 -0.1353178857861821
Ar -0.05702025531952854 -0.7504762783258071 -1.344806974477375
Ar -0.1036738109431889 -0.1939250269422065 0.9594603823082328
Ar -0.7021983511856222 -1.478640783631622 -0.09187106917003733
13
algorithm=ase_ga size=13 seed=1 index=3 energy=-38.44034237782554 step=4
Ar -0.08023789795005158 0.1706642416874009 0.3245945624866713
Ar 0.2655178324388943 -1.226053359761043 -0.3350289694583297
Ar 0.1224118367898454 -0.1858576059963971 -0.7220422934449009
Ar -1.525709259335223 -1.3128639063595 -0.03315084964972174
Ar 0.06637306922336195 -1.056999787543814 -1.414159034404179
Ar -0.8273542519090428 0.3670957019836841 -0.483003016168456
Ar -0.5296463912370185 -1.694804034951954 0.2972878185961168
Ar -1.022420943088395 -0.871439629797648 0.8895902865588452
Ar -0.7167476490263994 -1.538842750343052 -0.7844958567882016
Ar -0.8694439835335264 -0.5065382371599767 -1.175893209850583
Ar -0.3511037211650253 -1.608989889936954 1.39222228702668
Ar -0.6531418508278015 -0.6610396998912094 -0.1125529779529355
Ar 0.08769481149337327 -0.8561134997841269 0.6952931538877888
13
algorithm=ase_ga size=13 seed=1 index=4 energy=-32.46494768588088 step=5
Ar -1.112737751521603 -0.6251490982568023 0.8956029515883415
Ar -0.05750767945464801 -0.4120725928879748 0.6395866258057393
Ar -0.599792077409222 1.24331740896771 0.01101122159167153
Ar 0.1483593541073334 0.0707220551515514 -1.159597062628595
Ar -0.4293155561426559 0.1574796674010987 -0.2168450170388699
Ar -0.4465164792102014 0.01167114131353161 1.581575257592346
Ar -0.5945569933948575 0.8950912942822976 -1.04302975614644
Ar 0.1342190954279269 0.6712782430103281 0.6320252423445866
Ar 0.359697560519734 0.9033276949075697 -0.4461092360507971
Ar -0.9584329369666724 -0.1562174943158549 -1.132243965737789
Ar -0.2252386067904975 -0.9165746104702096 -1.500968228746942
Ar -1.304413737450224 -0.9880531897562438 -1.790998499704602
Ar -0.9459173662087643 0.4484741873283958 0.7046198246793421
13
algorithm=ase_ga size=13 seed=1 index=5 energy=-37.0936050351087 step=6
Ar -1.082525188587296 -0.3491657417323051 0.6727242157143978
Ar -1.526803135342427 -0.6913714465705155 -1.093430295677836
Ar -1.34690168559183 -1.127538997873462 -0.0796939987681452
Ar 0.7946784431406719 0.4271419871617694 -0.150107443873701
Ar -0.2777284439820509 -1.009893344125451 0.2111246951351218
Ar 0.1022996984298609 1.117960517814301 0.4067420052837331
Ar 0.2332218371646538 -0.4175416263801285 -0.5863236587615215
Ar -0.5423062020975962 -1.169362781737101 -0.8580922039523934
Ar -0.9554671951557991 0.7066535413705251 0.2604727082217959
Ar -0.8258857069613198 -0.1897858083194638 -0.3951321896389555
Ar 0.7885007564582284 -0.5936697395787593 0.3628048019156341
Ar 0.7846839167301124 0.3806591706336893 0.9598838429453411
Ar -0.09505922860980598 0.04485741297482303 0.3946153716037901
13
algorithm=ase_ga size=13 seed=1 index=6 energy=-35.06262487067335 step=7
Ar -1.287078411668887 0.7372617365411176 -0.3132768984264886
Ar 0.2043886008734905 1.283214707782005 0.7307403931014038
Ar 0.894872403364165 0.6383451880821951 1.329905600089027
Ar 0.4706876596146781 0.2344370309183049 -0.8317401186687935
Ar 1.168182500201832 1.534141006860514 -1.833412240130404
Ar -0.6250577732492252 -0.06688973841635357 -0.7714998801497855
Ar -0.2089203168410094 0.685499879758246 -0.09344994456701082
Ar -0.9180651027790818 -0.09358773684583443 0.3149857845647103
Ar -0.05006719056739011 0.2186005721997568 0.9217568209774145
Ar 0.8108783831965095 0.4558622980450055 0.2317428943286615
Ar 0.1139565027900562 -0.3886416364153853 0.01309176093233074
Ar -0.7517638055587607 -1.041813588958632 -0.2426455785624103
Ar -0.8819275993391753 0.9453188712169713 0.7346694780138012
13
algorithm=ase_ga size=13 seed=1 index=7 energy=-34.04072957781037 step=8
Ar -0.6410367038147577 0.6079472510386423 -0.2294756823107702
Ar -1.039246475577982 -0.3912030418398992 -0.487087792498113
Ar -0.2693183453953513 -1.009190389822581 -1.011839207065903
Ar -0.1641826091453842 1.521479148242287 0.2414051669496314
Ar 0.05975098334996159 -0.252658277782617 -0.270827463561063
Ar -0.8490374234684923 0.876381028225616 0.8363939651030702
Ar -0.4929882572512838 1.531013338409491 -0.8238286491100049
Ar -0.4682098461226246 -1.167736874668004 0.08501906651747057
Ar -0.7059788182083683 -0.1861351385580647 0.5571159709336954
Ar -1.259156846607403 1.498096269075485 0.001282939018147184
Ar 0.08175608577599816 1.271425471393709 1.309671169399418
Ar 0.9439238246133318 0.5249630497061295 1.298214573864492
Ar 0.1651345868029735 0.5009996274155925 0.5186406730400168
13
algorithm=ase_ga size=13 seed=1 index=8 energy=-37.21870947487071 step=9
Ar 0.5538351638416648 0.664121563915126 -0.3163667546999274
Ar -0.3333825072677312 0.9403919472509867 1.284197466208623
Ar -0.0684542011765651 -0.2653201959030415 -0.2926115490700458
Ar -1.171382049729977 1.234805102797395 -0.3596174028972443
Ar -0.1042354058632396 1.55321304267217 -0.4179373796877608
Ar 0.4039121067920304 1.341055899266908 0.5462901072917951
Ar 0.01449758658224424 2.004877117803857 1.352183186389584
Ar 0.4481565032140671 1.155197271663635 -1.30509441067282
Ar -0.6687758746250184 1.696263103578717 0.5274499777551729
Ar 1.045732984463702 -0.3293367647431895 -0.3417708263038486
Ar -0.4157057486294094 0.6587131574474564 0.2152042903941479
Ar 0.4709431634286981 0.03446244000542076 -1.232418023567869
Ar -0.4251199029183577 0.5999894591349865 -0.8937637477121548
13
algorithm=ase_ga size=13 seed=1 index=9 energy=-23.09275139041581 step=10
Ar 0.4634325198532362 0.9045444923199302 0.6965859772325894
Ar -0.5778569515161767 0.9119957627330113 0.3136100964784935
Ar -0.6052167098948221 2.187027084365683 -1.429021104316133
Ar -0.3483620530839798 -1.996636895194064 -0.8225418906265871
Ar 1.421931584531913 1.124785459260163 0.1848413943902781
Ar 1.189438968835447 0.08009957037055274 0.5299476493970133
Ar -0.06824312168453361 -1.835242855721775 1.901095919310135
Ar -0.9620533456469818 1.452154156982505 -2.199238973951982
Ar 0.4782900370569436 1.20906821249394 1.772251459658105
Ar -0.2433108544578942 1.681163945173813 1.061176185278855
Ar 1.421804042477711 0.8851829312597995 1.276696015845818
Ar 0.6209096416134825 0.1326863582061912 1.490881051297825
Ar -0.3789817906842485 0.6106243084876632 1.37298129677184
13
algorithm=ase_ga size=13 seed=1 index=10 energy=-37.13311941520276 step=11
Ar -1.174191931108573 -1.395730737997379 0.2321237013838623
Ar -0.9350226006286496 -0.5265076865035251 0.8925717034976882
Ar -0.4699969821140014 -1.39683692153821 -0.6387888747180736
Ar -0.6656911128239259 -1.558169180868586 1.218038321246945
Ar -0.8314844826692289 -0.4326522273522818 -0.2080871996777813
Ar -0.1004126643115607 -1.120246209578717 0.3706981684119492
Ar 0.7193354519237742 0.4066774243819379 -0.1969119840011608
Ar 0.009045682523286452 1.044910409365946 0.3993317271388854
Ar 0.2240599105317301 -0.5286480421078392 -0.5154125454335788
Ar -0.9956358367487758 0.497233826578607 0.3967884329526971
Ar 0.903671971629521 -0.5670048896270078 0.3684284752639068
Ar 0.8361309042000876 0.4364042809448596 0.908272489866417
Ar -0.04837869419523397 -0.04265815781407377 0.4679412544857698
13
algorithm=ase_ga size=13 seed=1 index=11 energy=-40.18807123104747 step=12
Ar 0.05478730659986736 -0.3477807255093545 1.533597700309479
Ar -0.4094442692161874 0.3863648275079238 2.228796833925567
Ar -1.053221893776616 -0.09528581984060631 1.444726386366978
Ar 0.6016836764913857 0.5894869497103288 1.775302259936111
Ar -0.3204440206463874 0.6825555792228278 1.163465233527023
Ar -0.3610853623683719 -1.075554284442635 -0.153851375877163
Ar -0.7890847165109085 -0.05441242039468663 -0.4424924763734144
Ar 0.5840264743009074 0.2156430790372744 0.721773779421921
Ar -0.1726437233369817 0.7256846801474208 0.06946329657467708
Ar 0.3204116464054814 -0.2087763817406034 -0.2727732199862027
Ar -1.195565651619372 0.5088414719543694 0.4793933407429173
Ar 0.4635859241737537 -0.890502535316171 0.6163275580472689
Ar -0.4182101835456311 -0.2486609430897589 0.5632846567012243
13
algorithm=ase_ga size=13 seed=1 index=12 energy=-38.27007535954134 step=13
Ar -0.7113288145842271 0.4094896489092913 -0.5037546930579655
Ar 0.2801227917813344 -0.02659681991423132 -0.2334274226128405
Ar 0.08539608933849863 1.05380634096311 -0.05033645790870291
Ar -0.07042558642469408 1.233027561351564 1.044236823631442
Ar 0.6433014383335451 0.4417996977036687 0.7073327667110761
Ar -0.4599901008486385 0.3065942504546599 0.5745810310891193
Ar 0.2930129903963389 -1.145836794073945 -0.2250337546820969
Ar -1.439156122290015 -1.271605971603255 0.328467638577419
Ar -0.8774142382262008 -0.6125105723706709 1.050660348960434
Ar -0.707445947670393 -1.60623345500214 -0.4685125490620836
Ar -0.3828969046109233 -1.505500078923544 0.5916500126387153
Ar -0.6456687356154308 -0.5936256487706578 -0.03214577310147088
Ar 0.1931228803864531 -0.5744604344164392 0.730553723763166
13
algorithm=ase_ga size=13 seed=1 index=13 energy=-39.22674544122586 step=14
Ar -0.01095405874110029 -0.2053882673521479 -0.6622346677090035
Ar -1.485350955151783 -1.040551334191646 0.1957162338515821
Ar 0.4290636288322638 -1.186297227496114 -0.962412986949706
Ar -0.5017805210117121 0.6676231914681705 -0.1100096163726358
Ar -0.5319434410838992 -1.408281110809806 0.6260030602958552
Ar -0.5788690274397406 -1.196437088286587 -0.4823764895607363
Ar -0.6184692988916443 -0.3706021752595757 0.2245890482038492
Ar 0.01472464814900938 -0.5763267916021048 1.120875797239976
Ar -1.099230300189086 -0.5958661557771299 1.176647219325982
Ar 0.4909278458524384 0.3846438103343838 1.421389647518931
Ar -0.5391370666270072 0.3919581376739214 0.9953321489032433
Ar 0.3615750671158675 0.1450137636624314 0.3421908335474151
Ar 0.3360464500070261 -0.9386843081617382 0.1173664795017518
13
algorithm=ase_ga size=13 seed=1 index=14 energy=-40.33111700216207 step=15
Ar -0.31640891719783 -0.5587645470372529 0.7191646353601318
Ar -0.9744534558834477 -0.1777172841089304 -0.1332219736150719
Ar 0.4847003997754253 1.155082915802975 0.8018824720707384
Ar 0.6613610716967937 0.01998476190521799 0.6722014208479073
Ar -0.2982161537255941 0.4964083390056582 0.4069605224614622
Ar 0.6178163549071314 0.7072153154299297 -0.1903258813730079
Ar 0.1293654986322529 -0.3053019145879118 -0.2585047266859697
Ar -1.18028307319556 0.9443605817570522 -0.07520454070201077
Ar -0.1727866134004817 1.471384476458788 -0.0948497385509581
Ar 0.3643529160015354 1.299819514492304 -1.082400437402887
Ar 1.228240200315492 -0.2033109134679105 -0.2879981295464942
Ar 0.589903832941887 0.1822814984344041 -1.153233556502845
Ar -0.3674899727463026 0.559205310747538 -0.715388707217572
13
algorithm=ase_ga size=13 seed=1 index=15 energy=-40.33111700592379 step=16
Ar -0.491555826350985 -0.9166505277939251 0.2670422381877853
Ar -1.096741672863914 0.8772630807459615 0.0383108542975263
Ar -1.05028730455389 -0.1765660414290841 -0.399948320554997
Ar 0.5597191376997542 -0.5084664040769304 0.4133159969459246
Ar 0.5407898670078551 0.5289077369874597 0.9231830210075781
Ar -0.3096145977657144 0.1667459601834882 0.3329074433199716
Ar 0.6526377904528794 0.4281205372150694 -0.1631435874245907
Ar 0.02860210917386656 -0.4171111123369623 -0.5688335340467497
Ar -0.02464292024933398 1.223714738387172 0.1924491916737842
Ar 0.5258226746112563 1.318004483750142 -0.7981599043566417
Ar 1.131025139658877 -0.475927103931598 -0.5694154779828113
Ar 0.5929894085530668 0.2697885076112682 -1.247069186708418
Ar -0.319470731852617 0.6146450114024344 -0.700389375358635
13
algorithm=ase_ga size=13 seed=1 index=16 energy=-36.06268850069686 step=17
Ar -1.419210550812972 -0.8145565073356653 0.2483236015573122
Ar -0.6148996985941801 -1.234488938684953 0.8868923819781973
Ar -0.4717785286212795 -1.210509062837063 -0.2513746792412527
Ar -0.4335138163910816 -0.2995058984088729 0.342184685705385
Ar -1.140032368333922 -0.2533380094568106 1.17611516294935
Ar -0.5569497309658759 0.6058408725882699 -0.2616774478337451
Ar -1.011586568502672 -0.3158814598073453 -0.6443928732736924
Ar -0.06339012296298198 1.44687154471289 0.2724706383084354
Ar 0.1000227645713987 -0.2545245809016431 -0.6081516327607003
Ar -0.6988263057118067 1.643801881114846 -0.6266224530589016
Ar -1.188612101729293 1.301723351909926 0.3233886870958755
Ar -0.5073634726916173 0.6378209234104808 0.8892563955428967
Ar 0.402308241522256 0.4221078053238863 0.2539469660746344
13
algorithm=ase_ga size=13 seed=1 index=17 energy=-38.83042316155866 step=18
Ar -0.8297084859111573 -0.04664592093565534 -0.846732493615902
Ar -0.2825683397659645 0.7164539946528921 -0.2075082557837842
Ar -1.309793905919633 0.3489246005418747 0.09494161602281247
Ar -0.9337860677621506 1.356556738105208 0.4207783926507013
Ar 0.1699626731353841 1.265412922049949 0.6454465743431742
Ar 0.4787139262356906 0.2007646306034807 0.4609261688000353
Ar -0.5285565370847092 0.4480559974107768 0.9148228204020938
Ar 0.456361305961651 -0.9125332023896208 0.1662560613303917
Ar -1.359949100306306 -0.7730818831615051 -0.1608683235367332
Ar -0.3640174927824186 -1.066020942727674 -0.6246375222504966
Ar -0.5624576544265177 -1.325756045640958 0.4561730026771985
Ar -0.4340447216268305 -0.2951268130225972 0.1376027652198026
Ar -0.03871678699754906 -0.55632963083594 1.118773112377711
13
algorithm=ase_ga size=13 seed=1 index=18 energy=-37.94421006669021 step=19
Ar -1.44680113246636 -0.6455692193973245 0.4176231004362335
Ar 0.1775493641139372 -0.4618074284917569 1.290940113099763
Ar -0.2345293522480025 0.1531931663518703 2.126188303364938
Ar -0.9452351856795533 -0.2694073564527336 1.376335431923936
Ar -0.5975280971123652 -1.078274212976897 -0.2716665069645133
Ar -1.228231327401806 0.4701765976218737 0.5751855374703435
Ar -0.4373724903046877 -0.2619845035335794 0.4150188526892347
Ar 0.1121462488858273 -0.2068307482002133 -0.5216875499918366
Ar 0.3828216031893089 -1.256670030135262 -0.7805467336560749
Ar -0.2855714613181941 0.7283617437122094 -0.01470456283693284
Ar -0.2358431788092418 0.5728795607536818 1.096378429797506
Ar 0.5769504934330736 0.1567382887706052 0.4389011664970704
Ar 0.3984319186947535 -0.9465217031791956 0.2899878837276723
13
algorithm=ase_ga size=13 seed=1 index=19 energy=-40.18807128235249 step=20
Ar -0.337587614251624 0.1237600885904439 2.055806113809752
Ar -0.9944710045530883 -0.3078922704554701 1.253686325661179
Ar -0.3468081386541275 0.5606294822594503 1.036181486284885
Ar -0.8667273483610338 -0.002558854282150893 -0.6234435096735337
Ar -0.2795704666298348 0.7563458564827561 -0.049039942077567
Ar -1.251088491444314 0.4001842818934156 0.3877159645920922
Ar -0.4124199408745013 -0.2909531912856306 0.3238237641853059
Ar 0.2606303812535395 -0.07984565538188476 -0.541393718703816
Ar -0.3403767513826633 -1.010918173502535 -0.4994448598600361
Ar 0.133484783811136 -0.4718503914182566 1.242706603044356
Ar 0.6202308644247557 0.4709019333272637 1.57480355093841
Ar 0.5586611828433111 0.2350134307502885 0.4836740666617367
Ar 0.5188116663818646 -0.85476818208549 0.2387365297515791
13
algorithm=ase_ga size=13 seed=1 index=20 energy=-37.73116042062041 step=21
Ar -0.5708284604211113 -0.2171240179775979 -0.7408782906988954
Ar -0.407273059501549 0.8862152633583845 -0.4803163145862986
Ar -1.228293983287299 0.3312369661882172 -0.005176814096238139
Ar -0.896612033959304 1.285790021606526 0.4482921134330752
Ar 0.1999824788448803 1.114017362562824 0.4429911561665079
Ar -0.4843318631516755 0.3280382490602622 0.8584514357214643
Ar 0.170164218489295 0.09939594137623084 0.0127376704541683
Ar 0.1834139855985593 -0.9470485385999271 -0.280125494265812
Ar -1.432808977255506 -1.407211433598889 0.4077370485999769
Ar -0.833112891077155 -1.302995400946235 -0.5311400755885211
Ar -0.3253527411662677 -1.586604661076775 0.4641673629992494
Ar -0.7174386345073169 -0.5754209394500717 0.286908451564087
Ar 0.2191322504635815 -0.6433896833821119 0.8296522798371404
13
algorithm=ase_ga size=13 seed=1 index=21 energy=-40.28301034239968 step=22
Ar -1.163708722151066 0.5151489959051653 0.3045003381048267
Ar -1.134516808682053 -0.1190279871389037 -0.6442831998882899
Ar -0.05687638188839902 -0.4516765375796536 -0.7766986110333363
Ar 0.5994385555007039 1.092464705421528 -0.04088800420562919
Ar 1.032370981037008 -0.6387989423745211 -0.6878266640587372
Ar 0.6544965561387881 0.3998426207777825 -0.9466848942146981
Ar -0.3009818359447305 0.5622503131757726 -0.3981375312975717
Ar -0.4974871361552853 -0.3553244957729606 0.2219598308261033
Ar 0.2276261549642764 -0.4213636607537407 1.040595987958715
Ar -0.829784918470729 -0.05394472224212835 1.228186269213553
Ar -0.1150765433646478 0.6049142121373285 0.694820777019113
Ar 0.551428290282383 -0.001644736204464266 0.07143745757099471
Ar 0.3305858435040076 -1.074564796342775 0.09057232463213655
13
algorithm=ase_ga size=13 seed=1 index=22 energy=-39.01741756412871 step=23
Ar 0.4320304477924006 -1.018940503661474 -0.002939589972248019
Ar -1.040320285854088 -0.5702410911787568 0.9983722434482963
Ar -0.4954062863799931 -1.198670725816869 -0.6545733728239467
Ar -0.5097564009519335 -1.432793055796019 0.4682326726353748
Ar -0.4681181338421986 -0.4141124343330049 0.08709481794111977
Ar 0.09068447537088428 -0.6433373601366402 1.004649424267205
Ar -1.045733789640154 -0.1671639345764426 -0.7926503186629938
Ar -0.3888616022828699 0.6031114036474199 -0.2697069961329466
Ar -1.328997925918023 0.2376185441943551 0.2389183549508554
Ar -0.9053402623683247 1.252498037302161 0.4666249851917458
Ar 0.2218362561980524 1.163040968093677 0.469945693702313
Ar 0.4850856504000091 0.09323725768526868 0.2450749253089098
Ar -0.4101288349364581 0.3471088734474547 0.8708039914821113
13
algorithm=ase_ga size=13 seed=1 index=23 energy=-39.28975092535259 step=24
Ar -0.3159306669466178 0.08870620023450365 1.844328791692992
Ar -0.984954620241301 -0.5479524450872837 1.189272534210641
Ar -0.5151266483802756 0.3826834283502958 0.7971585930886341
Ar 0.1161675492321787 -0.532079278241238 1.038719401017232
Ar 0.5157497562566841 0.4914118128003489 1.185442961203186
Ar 0.3797944277350202 0.06218180434999727 0.1545791454806295
Ar -0.5256675253359616 0.5149412776575827 -0.3075273791342891
Ar 0.1566760601794486 1.136593435584444 0.3383898472445958
Ar 0.3622199394867761 -1.061556776146138 0.08887242859115674
Ar -1.439113909582715 -1.159482019463481 0.3579765708107709
Ar -0.5970889337074705 -1.490125999346858 -0.3265657562242833
Ar -0.4455759309041228 -1.437956678569408 0.7739889964393846
Ar -0.5817268692074339 -0.4963084475701868 0.1525564353834805
13
algorithm=ase_ga size=13 seed=1 index=24 energy=-38.4143523223261 step=25
Ar -0.4469887841700236 -0.4120214337435539 0.2426617557373911
Ar -1.070307262917934 -0.1895060647411618 -0.6463729825602935
Ar 0.008492212369042179 -0.5019412514689315 -0.7661981377667855
Ar 0.1861853901104184 1.337072487983041 -0.9711998844300677
Ar 1.108331094202863 -0.6667776036307586 -0.6780554675103346
Ar 0.719489229897023 0.3556796128019432 -0.9143116084051551
Ar -0.2480105267332143 0.5016825210687414 -0.3899230450356831
Ar -1.131201682222075 0.4609092206610159 0.2773229214117042
Ar 0.6584901977443187 1.022218114937724 -0.006656178420342757
Ar 0.2414023669024827 -0.3935711330732501 1.114407232350154
Ar -0.8314049038059198 -0.06577009653389607 1.223566800901253
Ar -0.09609525623153976 0.5794805641139517 0.6936644855087778
Ar 0.5886662108550531 -0.07569692683889903 0.102973373060489
13
algorithm=ase_ga size=13 seed=1 index=25 energy=-41.04458332345623 step=26
Ar 0.4515934989629786 -0.9425342642852992 0.07868942837792703
Ar -0.4937066393469322 -1.345171546303778 0.549720458242784
Ar 0.1313295072088093 -0.5816637839182149 1.103923531764256
Ar 0.3689216667410675 1.209230540338233 0.6132897406659015
Ar 0.5453966293251681 0.1415710594623627 0.3518959097388058
Ar -0.3406672618446269 0.4370951576098703 0.9872126852986721
Ar -0.9955479301980193 -0.4718109399456114 1.122397860134936
Ar -0.9441108605881371 -0.01774037145583485 -0.6971387033943554
Ar -0.3094845040480719 0.7125130579132994 -0.1164438156873128
Ar -1.26998168954257 0.3544866046742888 0.3537052171324371
Ar -0.4377552925455931 -0.3207157066114769 0.2087181944721845
Ar 0.1815715952492425 -0.1383136262342377 -0.672478108762544
Ar -0.4618307474922568 -1.064268008142836 -0.575821256436401
13
algorithm=ase_ga size=13 seed=1 index=26 energy=-43.89940494629619 step=27
Ar -0.8282166489697254 0.01825675735487265 -0.8380201103471037
Ar 0.4937868395800786 -0.9212864932495545 0.03209253995904171
Ar -1.323047253188327 -0.6393923792336738 -0.0527936539227284
Ar -0.4234731769512515 -1.024775997093087 -0.6326149215247384
Ar -0.5060054725285636 -1.220063725381231 0.4849673163924907
Ar -0.3335513022181921 -0.2268406320072455 0.09236177649694303
Ar 0.16112453324149 -0.4719534884935371 1.022731291443419
Ar -1.160892743888757 0.4676005483653451 0.1526151664783503
Ar 0.2946461068014667 -0.1559442647939312 -0.7855437485013014
Ar -0.1611089421910328 0.7663893951674601 -0.3002377669709039
Ar -0.9617462594759179 -0.2977201273122307 0.9702692519609397
Ar -0.2436211040725847 0.5710889899134095 0.817338585038375
Ar 0.6559453142621841 0.1857136615989099 0.2375232920954045
13
algorithm=ase_ga size=13 seed=1 index=27 energy=-41.01720050154955 step=28
Ar 0.4692777423193782 -0.9361903889901807 0.07110874107695724
Ar 0.1059367104735565 -0.5495583097890657 1.071274995754531
Ar 0.4584260656046076 1.233647440537434 0.5579415813488046
Ar 0.6043616994450303 0.1514086789630919 0.3421470058787973
Ar -0.3185801385315209 0.5116152115452403 0.9009459930908287
Ar -0.8157787519385881 0.02848703097560911 -0.809266717199512
Ar -1.349072102628513 -0.6799950704029895 -0.1076067068031318
Ar -0.4073198023871066 -1.012984532248572 -0.6400829441372744
Ar -0.5355219805870096 -1.290719487174397 0.449747325987664
Ar -0.3867915227272017 -0.2622546082127422 0.1525626442256652
Ar -1.210242969660332 0.4384624030270817 0.1695771069017192
Ar 0.2932711307651732 -0.1329922194321247 -0.6984652432917033
Ar -0.1930414728884602 0.7500022627870765 -0.2041384288867738
13
algorithm=ase_ga size=13 seed=1 index=28 energy=-39.36921262967115 step=29
Ar -1.260975863367627 0.4297011777551551 0.3357823002524634
Ar -1.104121393807521 -0.0789106222136317 -0.6690385775699663
Ar -0.00895893978797071 -0.3372182566896859 -0.738621135415283
Ar 1.078915857670987 -0.4874876755546163 -0.585000271902075
Ar 0.6693611531441825 0.5624186831800873 -0.7201965243248397
Ar -0.3364245067781111 0.6005173710338402 -0.2493371561013223
Ar -0.5413692426782085 -0.3995911912431453 0.2245367613288357
Ar 0.3361148393376032 -1.063914882698799 0.04792024517831396
Ar -0.5108357048480701 -1.401096109833957 0.6941401583912798
Ar 0.1447750970517595 -0.5751579561501201 1.071231294434754
Ar 0.4908141014268768 1.104169536859536 0.2768757814526828
Ar 0.5001889828428623 0.007460052508581059 0.2113381671423895
Ar -0.2613203268060357 0.4700510029426106 0.8579299796594126
13
algorithm=ase_ga size=13 seed=1 index=29 energy=-41.01720048279439 step=30
Ar 0.433117073215868 1.167711603191199 0.5706461908640335
Ar -0.8473085828387291 0.00119844593701442 -0.8240032189247737
Ar -1.373413070075372 -0.7302783741420495 -0.1407408639035414
Ar -0.4345352013427879 -1.043678699773389 -0.6899152372993979
Ar -1.235926488835213 0.3795624258085125 0.169800976397627
Ar 0.2629872044143797 -0.160064381549351 -0.7261302546627502
Ar -0.2223781548459877 0.7057185884165019 -0.201363125713286
Ar 0.4469351058147963 -0.9860194857884736 0.01705122034600783
Ar -0.5540454029390079 -1.355262253345631 0.3917267772207333
Ar -0.4105340196405602 -0.3176608283941977 0.1253312938364717
Ar 0.08966639453075977 -0.6315506024198412 1.031225757960217
Ar 0.5807245863215209 0.09312944167564899 0.3205166104978326
Ar -0.3392501430801814 0.4329842128331583 0.8967287629754256
13
algorithm=ase_ga size=13 seed=1 index=30 energy=-43.89940491040193 step=31
Ar 0.5390469550705125 -0.7524285058464676 0.1267428666875805
Ar -0.4352010371712634 -1.198455319892029 0.5086265323905688
Ar 0.09376361828957175 -0.3896842211589968 1.10863148421076
Ar 0.5387878573474324 0.3575412273161533 0.3754516579214575
Ar -0.4356211769234479 0.5975493638567958 0.9110482283207942
Ar 0.2848098012366624 0.01061549715911605 -0.6776780927642525
Ar -0.8465627947254983 0.03617332549535461 -0.7929318325022963
Ar -1.291540596150375 -0.7110848641255716 -0.05977410884420407
Ar -0.3171284037945323 -0.9510576936865004 -0.595368053564435
Ar -0.3763840733828496 -0.1767568815772626 0.1578413560432896
Ar -1.291809131147519 0.3989217026598819 0.1889421692865101
Ar -0.3175499790773548 0.8449446008992871 -0.19293559053772
Ar -1.037604999484003 -0.3641181886517491 0.9933408611097044
13
algorithm=ase_ga size=13 seed=1 index=31 energy=-40.1880712714878 step=32
Ar 0.495774349828401 -0.9144776363433608 0.05025795098133427
Ar 0.09187488902362455 -0.586710121355575 1.052830622629938
Ar 0.5003782028318315 0.1625187039318557 0.331021506786031
Ar -0.8893768535465965 -0.07551869335916465 -0.8194597311284756
Ar -0.3727001915933965 -1.094437179630123 -0.6547167166130723
Ar -0.4140010506871432 -1.411786870835154 0.4438183075424604
Ar -0.4680766697584508 -0.3591065307687593 0.1434552053659659
Ar 0.2258750375123849 -0.1514362189297485 -0.7102515782782509
Ar -0.3115920808016019 0.680185891370249 -0.2202839139509773
Ar -1.297571472262204 0.3587431612595724 0.1613311448310632
Ar -0.8647718453447201 1.347294130649152 0.472215180668824
Ar 0.2515547777205092 1.227059683051556 0.5652535152610043
Ar -0.4314242368670287 0.416245671736188 0.9001403433933586
13
algorithm=ase_ga size=13 seed=1 index=32 energy=-40.28301034240886 step=33
Ar -1.191913735259125 0.4904823867396659 0.3324929989248706
Ar -1.111611318697269 -0.09053527281536101 -0.6468800606290898
Ar -0.01929706987749714 -0.3787242854946347 -0.7621410199600454
Ar 1.072781081580002 -0.5331598068370232 -0.6485061403738772
Ar 0.6660223086900365 0.5043986385636773 -0.864355048626543
Ar -0.3106931350173122 0.6045375927857952 -0.3388083069438922
Ar -0.4928846233508213 -0.3511261397418141 0.2256351927317028
Ar 0.3638975138089234 -1.033683057564929 0.08312284591918645
Ar 0.5590782948044671 1.145177418833169 0.07435845825959697
Ar 0.2091830367701819 -0.4362585846421463 1.062378595768213
Ar -0.8658187740822688 -0.1156227504648227 1.235196347126199
Ar -0.1593651645786804 0.5948416800041039 0.7602535489784176
Ar 0.5467950278546838 0.04561258256204802 0.1274507178281317
13
algorithm=ase_ga size=13 seed=1 index=33 energy=-40.9670019405398 step=34
Ar 0.4720902849981856 -0.9340017566165515 0.07125751988325099
Ar -0.5116873396585168 -1.296226229353877 0.477051810396505
Ar 0.113186638455023 -0.5618610080993277 1.071893612086612
Ar 0.4432335074786584 1.220098449992933 0.5838945228763593
Ar 0.6020163499542204 0.1465561416760535 0.3419443918827266
Ar -0.309929882684867 0.4760470709822001 0.936376551716446
Ar -1.010659537360919 -0.4393520546058052 1.0198022654263
Ar -0.8400647884347838 -0.004299427866826874 -0.798729432546687
Ar -1.340659766322338 -0.7365975069418289 -0.05157040816054293
Ar -0.408775761106991 -1.0337773103961 -0.6199884597361969
Ar -0.3916195967875361 -0.2604402045883614 0.1513674504097411
Ar 0.2795611589522695 -0.137599990044362 -0.7015612317155908
Ar -0.2041230133510217 0.7458629282138106 -0.1914574030654744
13
algorithm=ase_ga size=13 seed=1 index=34 energy=-39.64768563464212 step=35
Ar -1.018673153385175 0.6679313617616033 0.2388529774291647
Ar -1.233254466861721 -0.1397254928457557 -0.4921033459525129
Ar -0.3691757298375645 -0.2430715446922757 0.1834470858455952
Ar 0.5842917280795792 -0.6926810486561599 -0.1458883640632983
Ar 0.4390229527382105 -0.375013879114397 0.9204147262625623
Ar -1.062208737674031 -0.1286428383031152 1.02274860412158