38
algorithm=ase_bh size=38 seed=1 index=0 energy=-153.0020438634386 step=1
Ar -0.1173987707171594 1.245373571060837 -2.148734012200561
Ar -0.6469783921630765 0.4512672443542335 0.3617647756908269
Ar -1.40168265843503 -0.2744139609399209 0.01227615062241361
Ar -0.08308003086890726 0.2709820327328556 1.339059992760454
Ar -0.971179199627705 1.942102247865421 -1.783782748392692
Ar 0.2137633587397567 -0.7047525685745191 -0.7803543148307519
Ar -0.1282380429746583 -0.8450385557819522 1.164072200918862
Ar 0.5628694333708715 -0.1629575828274566 0.624376378180481
Ar 1.720323276822482 1.300106647301926 -0.7598949813513065
Ar -1.049140871630136 -1.213056347412578 0.5447439860927685
Ar -1.059302853831095 -0.2244442020814505 1.077693080295851
Ar 0.1385867545665244 0.5885604954976945 -1.295722871834766
Ar 0.9182025097751915 1.282456241865244 -1.588566496393317
Ar 0.2668529782999545 0.9897835658587969 0.5177796122521584
Ar -0.8804180575236257 0.9391982099532592 -1.381364313374671
Ar -0.3626300925118432 1.077432008273835 -0.4336685629727317
Ar -1.650370926963629 -2.744301099714907 -4.351363017087298
Ar -0.6512145968111985 0.03190771182788585 -0.749272415841811
Ar 0.4990857225783897 -1.200144619920221 0.2580007281096908
Ar -0.9519418992257113 0.915572322844479 1.3228610450542
Ar -1.718149206432547 0.6336320566017281 0.5944487349488283
Ar -0.8731311802522725 -1.060225406835606 -0.6039260895263614
Ar 1.010850220214086 0.6135267478451986 1.243605665358103
Ar -0.03185850456867462 1.755657057225883 -1.193964339157812
Ar -1.394079561300984 0.7578663901771828 -0.4325250571556435
Ar -1.87568194541516 1.396231991896271 -1.218705186857823
Ar 1.262704786709868 0.5878097392776498 0.1430587364463549
Ar 0.6763239068871228 1.25697383198106 -0.4964395836185165
Ar -1.051823944817844 1.85718332332993 -0.6780779625332412
Ar 1.167116830559112 -0.4586294905500076 -0.2305567853091035
Ar -1.984552095618527 1.593215485975928 -0.08328016706868202
Ar 0.3032245333785582 0.2545106855779686 -0.2919904626738782
Ar 1.161479108513086 0.364701651040072 -0.9663641412137486
Ar -0.3307558868166746 -0.520774772865553 0.1516184634351885
Ar 1.614621314864666 -0.251216193544953 0.8140244961912687
Ar 0.7967567487603044 -0.4088863026601648 1.646979675042724
Ar 0.9987917680350901 2.189400551994198 -0.9650319293717224
Ar -0.9792875761700556 1.482689794472271 0.3703157557779134
38
algorithm=ase_bh size=38 seed=1 index=1 energy=-153.0020439639875 step=2
Ar -0.09754353443576008 1.255199639568375 -2.139513315106267
Ar -0.648752618635313 0.4554814314070022 0.364538917787471
Ar -1.394505131235538 -0.275208587901017 0.006379560570078553
Ar -0.09427045455129057 0.2784546447144406 1.347806380228954
Ar -0.9600546165310698 1.94570289572855 -1.783358158783142
Ar 0.2324323888756498 -0.6935887374539301 -0.7689687964790676
Ar -0.1296901540246896 -0.8377274692409908 1.171569360688767
Ar 0.5624185757789838 -0.1504121926012855 0.6398816998566044
Ar 1.72457657923026 1.321655138906192 -0.7308390169762247
Ar -1.041168252607389 -1.211758084940073 0.5420225191282417
Ar -1.064089343285177 -0.2236299307751001 1.075490465281818
Ar 0.1537451346128574 0.59951300237285 -1.284231888552051
Ar 0.931621659979906 1.299043460134468 -1.568136021482837
Ar 0.2595190299402284 1.000289351709014 0.5308326378455788
Ar -0.8666838832821772 0.9431323979769534 -1.380688334681825
Ar -0.3601856566716605 1.084229547330868 -0.4273364618420135
Ar -1.780075942832734 -3.046318572199358 -4.659733544731044
Ar -0.6380059407710122 0.03695116403364627 -0.7467657452069598
Ar 0.5099278176324561 -1.187767829857809 0.2721683329534235
Ar -0.9674133882061198 0.9169267646352299 1.322584136626235
Ar -1.723641097416579 0.630167793027741 0.5856848857130753
Ar -0.8537814503443469 -1.056836467524998 -0.6045839729039069
Ar 0.9982099437847743 0.6287252736732662 1.26445263372911
Ar -0.0259190318851882 1.76533430759911 -1.183520953400611
Ar -1.389326024600501 0.7574670783148189 -0.4376147990741638
Ar -1.866794464001931 1.39313447317899 -1.228514951273056
Ar 1.262177246511117 0.605558356111958 0.1666849262297511
Ar 0.6781139881850797 1.27107197828569 -0.4787070797953601
Ar -1.052081681320702 1.859375245013749 -0.6786508603757964
Ar 1.17798113393021 -0.441238674016074 -0.2086215458640608
Ar -1.989345996995902 1.5884313747849 -0.0942153724442749
Ar 0.3098311879995333 0.2658867702284096 -0.2789837501913432
Ar 1.17453616615312 0.3825361620832339 -0.9439398663917469
Ar -0.3234515178089108 -0.5141627394409958 0.1571697799263187
Ar 1.61263166369452 -0.2314839454108758 0.8409065847906034
Ar 0.7868990575781212 -0.3954491442856433 1.664812721592923
Ar 0.9991435104249653 2.206063331615941 -0.9431594777375563
Ar -0.9883279454692574 1.484551296335278 0.3701924087560192
38
algorithm=ase_bh size=38 seed=1 index=2 energy=-153.7857568681215 step=3
Ar -0.1070900801852291 1.266024215156872 -2.144086462741951
Ar -0.6056250706751626 0.338319774025711 0.310484231070505
Ar -1.459687588179257 -0.2326885428396895 -0.008386500662566547
Ar -0.1058936279990624 0.125434135780513 1.656129946603525
Ar -0.95412029729684 1.966583083145695 -1.775638290770565
Ar 0.2801637230664532 -0.4896545416769983 -1.024941443461691
Ar -0.2255824324796998 -0.8454006719039484 1.140048286094324
Ar 0.3804796374217445 -0.05041827395738095 0.7019517366587372
Ar 1.714835019834456 1.295764475736926 -0.7156370423959227
Ar -1.047209667092194 -1.118785816695864 0.4706823993247412
Ar -1.093122362859525 -0.1761252493532429 1.111880604697044
Ar 0.1379313089525403 0.6038364495008869 -1.297088382673286
Ar 0.9349423389986483 1.283426839354973 -1.557032925910348
Ar 0.1897373568327073 1.038883402722564 0.5402288837139477
Ar -0.8860514038699322 0.9550932298226891 -1.388837840188666
Ar -0.372731751445623 1.08008825447767 -0.4447370489907544
Ar -1.568786607933147 -3.291474552661966 -4.960028909997712
Ar -0.6608478829278761 0.04584009353128674 -0.7566513384060765
Ar 0.7053571195439042 -1.10631312147213 0.6375285781815926
Ar -0.7150030824452521 0.9012160225851108 1.24410726727707
Ar -1.62658509697052 0.686201126260175 0.6307535513013537
Ar -0.9553495280966205 -1.006345357029064 -0.6533494212563037
Ar 0.9093321727897146 0.6100545747777439 1.34137871107032
Ar -0.01787169131765999 1.769184257873077 -1.186771363154095
Ar -1.397989568203158 0.7843134734677817 -0.429197699216548
Ar -1.862263688186884 1.44804427758398 -1.198053777624156
Ar 1.195152343508125 0.6055659935074418 0.2129451913783354
Ar 0.6667189625915252 1.283101004820976 -0.4665918998900064
Ar -1.024499275309421 1.89437791944465 -0.669504403802114
Ar 1.027933601176237 -0.465326202184658 -0.1776324279880079
Ar -1.934025539448167 1.640945746907936 -0.04779031708305945
Ar 0.2893256298002465 0.2897529998961865 -0.2840514901349807
Ar 1.151423183116354 0.3614503257239902 -0.9238582203616872
Ar -0.1580914026716604 -0.6578072622095829 0.006178153819242769
Ar 1.45836078284446 -0.2667648078368322 0.8251106094198838
Ar 0.7559707199332477 -0.5458778718998828 1.616421608067292
Ar 1.014064232478376 2.199406587407475 -0.9482574553974433
Ar -0.9146435298973215 1.489374511331465 0.3653889418416874
38
algorithm=ase_bh size=38 seed=1 index=3 energy=-156.0204621665171 step=4
Ar -0.04625958906948296 1.020694141651202 -1.531418897550661
Ar -0.7671846124262037 0.1393562652511939 0.01726004210330937
Ar -1.742842746367171 -0.2810293764190103 0.2498903680411456
Ar -0.07565208527028748 0.01459573189127524 1.675915944002286
Ar -0.501697303501583 2.016634608347921 -1.515946568664851
Ar 0.9372502361153983 -0.7505178936988726 -0.6737810341655239
Ar 0.00231749512811991 -0.2663166097026821 0.6282897252126349
Ar 0.8192506773359175 -0.548442615862496 1.285081860316306
Ar 1.685854651840206 1.352390917979495 -0.7901761660615355
Ar -0.7807225604739838 -0.9631044526652781 0.3266569081392914
Ar -0.9970229478371023 -0.1943879975998628 1.079597226348682
Ar 0.397668018952951 0.09602121859383275 -1.176930468568703
Ar 1.065233248442245 0.8843026284277432 -1.616910254315566
Ar 0.2522281572636864 1.389816666998307 0.3287022318060792
Ar -1.138638370740322 1.109365527830694 -1.439968525336131
Ar -0.4632055190091899 1.055562739187971 -0.5113983676733787
Ar -1.6921585941127 -3.083656900773692 -4.759066519375811
Ar -0.6772478254832557 0.1765162895020022 -1.088307414583783
Ar 0.4526837993604926 -1.175478903371133 0.3129680078479106
Ar -0.4189519142082019 0.721615371948198 0.8612692749300718
Ar -1.48383917624317 0.7210749646281358 0.6265965503717355
Ar -1.219633926780996 -0.645233592268914 -0.639871642121408
Ar 0.6335817917679569 0.5353581841722429 0.982508366322041
Ar -0.0643180032381373 2.062084016295701 -0.5032807534221452
Ar -1.516679574551685 0.6989774295967273 -0.4900058768317226
Ar -2.12156631908736 1.45145507533746 -1.032059761490322
Ar 1.259661830423163 0.9249938153549054 0.1930627753016105
Ar 0.620475242733205 1.21239919972656 -0.6833397362375444
Ar -1.170993354460615 1.878490897830726 -0.6549799528089676
Ar 1.066576122761735 -0.2277128191031868 0.2688149631710814
Ar -1.93480019986574 1.561227102220436 0.07184556393439022
Ar 0.2956162554893716 0.3914454088672463 -0.1274763486171605
Ar 1.323572563068679 0.3015199009920764 -0.6800773751737984
Ar -0.1107560977304156 -0.5766326083274458 -0.4545386615690654
Ar 1.681880607979718 0.2367897774040889 1.038397851357279
Ar -0.2171605387100749 -1.058830168885045 1.304635787112002
Ar 0.6099119472508903 1.934873019761735 -1.475010352498865
Ar -0.8437744293475387 1.593083542002272 0.3461452691607626
38
algorithm=ase_bh size=38 seed=1 index=4 energy=-157.193229013787 step=5
Ar -0.07385014735395502 1.264866765223216 -1.588235092702162
Ar -0.5455019189347436 -0.6401362980909963 0.1823058901749069
Ar -1.189679636218724 0.01424733371737414 -0.5550802908678194
Ar 0.3147623879366891 0.03532213939593562 1.667112245150844
Ar -1.146884429157719 1.521825614121927 -1.414333383770045
Ar 0.4103057854792715 -0.8504918167206884 -1.007679849056377
Ar -0.7029069721242597 -0.1917669233564561 1.186677523332315
Ar 1.159751355323364 -0.1780176031514771 0.9432119469324287
Ar 1.583607414544909 0.9804954375917051 -0.7508387470704845
Ar -1.574840474803999 -0.2242255334150986 0.4571861508817248
Ar -1.446756132527094 0.6916867457219472 1.090993285097567
Ar 0.1837687526051434 0.1435629011162806 -1.521467261296323
Ar 0.9138813549346461 1.798335575323076 -1.208770590428497
Ar 0.07766383378099952 1.136643872000988 0.2306610946839612
Ar -0.8527394420400853 0.4468846869901687 -1.547399254244064
Ar -0.6243110815270047 0.9722500234843974 -0.6265232654812559
Ar -2.011615616967641 -3.041348174009928 -4.516329486750723
Ar -0.05215183237396737 0.04643362752370282 -0.4691889950219715
Ar 0.2208915689416427 -0.8763407638739126 0.9894645902096526
Ar -0.3307452371596197 0.850726645213784 1.24981140862975
Ar -0.7543573527463149 0.4583159154079163 0.3042088193663227
Ar -0.6129589814328874 -0.5897685963941217 -1.227791689280297
Ar 0.7706225180479838 0.9029726600091257 1.086287421473375
Ar -0.01189174068840018 1.878627420487752 -0.6053164497101929
Ar -1.613194383756656 0.9688361054707129 -0.07989110662568356
Ar -1.829754643809946 0.6909688406432825 -1.125748357066794
Ar 1.016939637554909 0.5319385856643714 0.08948425396590311
Ar 0.4783715096600595 0.9146793713956575 -0.7524911228958481
Ar -1.090673100199673 1.943108424529902 -0.4000183227537968
Ar 0.7074676377537993 -0.5973068750575418 0.01073777436191832
Ar -2.083838595282232 1.705005492456029 -0.7934962168812189
Ar 1.064865454942294 0.007714125042062484 -0.8717952046519845
Ar 1.021196617193607 0.8137888978621485 -1.70002988397117
Ar 0.1778664718625977 0.1186035307664036 0.6007694482392542
Ar 1.761944902561087 -0.2480907276555806 -0.03403577303808266
Ar -0.2897982662333468 -0.8470884703099106 1.977984085415324
Ar 0.9842289864965622 1.642350568734519 -0.08901215071030483
Ar -0.8910292468827669 1.513690979263854 0.5716705947715121
38
algorithm=ase_bh size=38 seed=1 index=5 energy=-151.2734890495524 step=6
Ar -0.2036709666427969 1.296150744274946 -1.830088016605661
Ar -0.6448756384737601 0.1026619026493057 -0.0661642575649284
Ar -1.299198124594791 -0.1990277259333823 -0.8912280063409423
Ar -0.1954730644762843 0.2365110931117882 1.506236202763803
Ar -1.017154737153529 1.610931808506946 -1.125310601234486
Ar 0.665708347810356 -0.6443577470831925 -0.3172932752886017
Ar -0.7541615209247261 -0.4864116275621311 0.8493830451442343
Ar 1.099591918699723 -0.7270574381290554 0.7019695742922423
Ar 1.284721881674997 0.9456074691573709 -1.661645381655687
Ar -1.653678698586935 -0.3092001588512484 0.1437559797875415
Ar -1.253862013136734 0.05489792056708769 1.711510375304198
Ar 0.3560484664084642 0.2983330779114247 -1.57388523717244
Ar 1.178534495538436 2.004241226206485 -1.168859311096541
Ar -0.2364400992876258 0.8564538467109395 0.621771100863976
Ar -0.5595275124128656 0.5926326007018865 -1.070801664820991
Ar -0.354657486993142 1.322277921252447 -0.3215024830414185
Ar -1.84216930192761 -3.223589602475746 -4.489370548884526
Ar -0.2063486242437618 -0.4392271780170943 -0.9429539629922163
Ar 0.2255516244879397 -0.1124678877473322 0.5407310908186804
Ar -0.8423799209339943 1.137221135431863 1.509361303037194
Ar -1.269319884435872 0.5131537104705084 0.7233559948730793
Ar -0.8220424177241472 -0.9613952712119405 -0.1873223501524709
Ar 0.7480275158101704 0.6730574952265576 1.092299827342571
Ar -0.03701630575770794 2.146730344992141 -1.073435471712273
Ar -1.369864834576564 0.8287145244420101 -0.3470538204660272
Ar -1.598662627617869 0.7285597280427858 -1.429560773537365
Ar 0.6537287264853098 1.26273130659945 0.1273826569051675
Ar 0.4786445258817498 1.214782718298985 -0.9961635606693777
Ar -0.7947463867438233 2.327671716330351 -0.2837710325828719
Ar 1.203031896353016 0.2701678437647293 0.1724161196328574
Ar -1.788589468584658 1.83708618775935 -0.3591940063879771
Ar 0.3048079977680483 0.3782435340141951 -0.4126542389601064
Ar 1.221442315654409 0.08330389837767493 -0.9356410911183624
Ar 0.06077610626830499 -1.184241176484663 0.4214800196768166
Ar 1.762693363810757 -0.5939842159372781 -0.2124845294986012
Ar 0.220057338530533 -0.7698505421275464 1.423637515529707
Ar 1.481735279850104 1.079248604964305 -0.5641257455680615
Ar -1.082605208404578 1.558738714917611 0.4683125997915276
38
algorithm=ase_bh size=38 seed=1 index=6 energy=-155.3653746465775 step=7
Ar -0.06186887119414458 1.503058001206294 -1.422366862049944
Ar -0.7667929280197104 -0.9663132333569199 -0.475335154922887
Ar -1.390484409580107 -0.01771827676110204 -0.1747370712359894
Ar 0.3602931074064131 0.03696238537878402 1.832839134390225
Ar -1.010651988502542 0.9788868106231827 -1.589771460419207
Ar 0.1431285830422578 -0.9514502802820944 0.2413189478181656
Ar -0.8623914397846044 -0.5954542818773029 0.6092045601272142
Ar 0.9421201589522444 -0.5544961041692604 1.001678440179162
Ar 0.8819250294989691 2.030167570043313 -1.236346345786538
Ar -1.731312322029277 -1.039530104876966 0.07310473571192998
Ar -0.7398261506742045 0.02956062975126015 1.551855251301635
Ar -0.04061656116926021 0.4375689580129109 -1.672153849818788
Ar 1.546749374050841 1.209047992433008 -0.9413697125392624
Ar 0.5922518515151999 1.674579433631678 0.679797109956268
Ar -0.8332264506917302 -0.05714953772705996 -1.133172249739225
Ar -0.5120627154562275 0.875999184990785 -0.633798882977525
Ar -1.879707734373274 -2.877963369603661 -4.712026363505986
Ar -0.3113939094626981 -0.05080486311105517 -0.1796376095404773
Ar 0.03713481431415867 -0.02486720558963916 0.8152519106514352
Ar -0.1170585623629606 0.9730826945730053 1.264106470895831
Ar -0.8533614517386608 0.5530183868233239 0.5637969151337081
Ar -1.736031253255733 -0.670846262480199 -0.9887211014582041
Ar 0.8959829034399366 0.5960746526429579 1.024639130788722
Ar 0.2501550511245529 1.694098788033855 -0.3977097534161029
Ar -1.45880978642649 1.10524750602122 -0.1797876055738134
Ar -1.811970867703511 0.469262635351088 -1.044289698725605
Ar 1.219125409500602 0.9622914721487142 0.05759085835904262
Ar 0.5558482873786179 0.7031090294892618 -0.7980027812841676
Ar -0.8215482892267983 1.902187994136259 -0.7124564524388067
Ar 0.7745491531401728 -0.06212232344590127 -0.009098846202420982
Ar -1.804467152702482 1.584073552380716 -1.115963107225927
Ar 0.2785648170180342 -0.3863807022722051 -0.9912526945942767
Ar 0.8730393811291535 1.055496060746877 -1.8035244602473
Ar 0.1646868588469961 0.8190066621567346 0.2092058873001716
Ar 1.73249655079084 0.0813631760825118 0.5141434253668828
Ar -0.08846837719705145 -0.9248487770036775 1.374174031728008
Ar 1.272210238504365 2.024106151613882 -0.1852790802128063
Ar -0.5695533907033505 1.590996097407942 0.3371883726185165
38
algorithm=ase_bh size=38 seed=1 index=7 energy=-157.4554737875045 step=8
Ar -0.177389647079796 1.09640192161081 -1.923199350324424
Ar -0.4685763802174187 -0.2545219661702907 -0.1953866316953518
Ar -1.445446906232618 -0.5351125604284069 0.1177302625222602
Ar 0.04340286095057119 0.2390570515950986 1.607997984458715
Ar -0.8856840837092446 1.257222100502444 -1.067819736692405
Ar 0.3391814550900572 -0.5409448303483358 -1.167061805320124
Ar -0.6613355855318411 -0.2681738133586586 0.9183220370817081
Ar 1.080590134706639 -0.004492501241281862 1.276434396022623
Ar 1.224587735318022 1.005649152889208 -0.7193342340679936
Ar -0.3324836019239512 -1.255894495976692 -0.6913949738836511
Ar -1.028099447189977 0.5400932833106692 1.58894574697974
Ar 0.6767142909185184 0.4514185131690446 -1.530339978413173
Ar 0.8236326057647205 1.582146586087126 -1.650308200409406
Ar 0.4969836896111276 1.231150725306527 0.1203198830774029
Ar -0.4107695604742705 0.2766205043090453 -1.162174657413206
Ar -0.3330638028323977 1.882181388740388 -0.2314170393130515
Ar -1.785022052742921 -3.386914256955279 -4.209091524528823
Ar -0.4614112028537695 0.7959159087264163 -0.145671654635657
Ar -0.4871521218630833 -1.191546439275655 0.3831712745071684
Ar -0.3477237399375078 1.059486667033331 0.884755465957053
Ar -1.27906376117389 0.5041182010527299 0.5103086839894846
Ar -1.131677248120037 -0.5706375547532067 -1.004211593646549
Ar 0.7269228983376694 1.013065326996623 1.154695713945864
Ar -0.1937438755158081 2.102581064423583 -1.332708139349321
Ar -1.378755055140619 0.4035996993211585 -0.5711829698592945
Ar -1.964649721899653 1.328138193898619 -0.9312548156969893
Ar 1.258927988308579 0.4519373300818899 0.2591642960491752
Ar 0.1652032757539206 1.185546611281359 -0.9101710127654685
Ar -1.325422063128499 1.442965517762163 -0.04992844337382284
Ar 0.4677244467834736 -0.7516911720687369 -0.08339915354214275
Ar -1.218032134347467 2.254248171103772 -0.8106442064832627
Ar 0.4435632823501769 0.2758627192913743 -0.4728520034110157
Ar 1.347544599055798 -0.2449548104105413 -0.6441690690033256
Ar 0.2359280625624737 0.2049875915286309 0.5458476210461368
Ar 1.396160998020578 -0.6279595018318258 0.4380705632320032
Ar 0.3354518086938331 -0.7677387194906076 1.015286740734169
Ar 0.7248159636091438 2.051217653443732 -0.618389031880527
Ar -1.353177146522009 1.47427124196631 1.054153594517125
38
algorithm=ase_bh size=38 seed=1 index=8 energy=-154.2990784628409 step=9
Ar -0.2083099848528563 0.8189262763075158 -1.695294503922834
Ar -0.1852606989121892 -0.8277296494403764 -0.2274099147334505
Ar -1.607993410776701 0.1678200728371267 -0.8882621142967932
Ar 0.4639902824621294 -0.4196797630720374 1.497859398350309
Ar -0.7694919241471401 1.738046312918379 -1.332446297134312
Ar 0.7384656927552796 -0.3218598221844659 -0.6103311651506641
Ar -0.9105003081053259 -0.00736611466720192 -0.05078456211312486
Ar 1.498503762464522 -0.6637573328050312 1.157686149123527
Ar 0.9966060466417336 1.654794324761734 -0.47990605546832
Ar -1.144446973034665 -1.041478155859482 0.288954135153977
Ar -1.127548165848907 0.4076378059911281 0.9882373009713634
Ar 0.6063879777019758 0.101753144417517 -1.603638547760099
Ar 0.3786521003743184 1.684870406029943 -1.407039703961563
Ar 0.490380949284716 1.196562961826776 0.377352207581562
Ar -0.7808722250444641 0.8610636702508984 -0.7265982486730499
Ar -0.5651508799963911 1.001108868458623 0.3059343855194966
Ar -2.055134427078877 -3.371070668995343 -3.887135824849383
Ar -0.3152090071756051 -0.06877117895902538 -0.9960314325925981
Ar -0.402780862782846 -0.4324369966555828 0.8191170481907601
Ar -0.5846249884342936 1.347412809305234 1.445890409230329
Ar -1.423974670291329 1.533943689840126 0.7998425231789411
Ar -1.119573102669265 -0.8128988258533371 -0.8057543843422259
Ar 0.007590206483287599 0.5196528715125465 1.131041054842423
Ar -0.1014647465005256 1.720483116483665 -0.4214748177759519
Ar -1.623348286053587 0.8026656765633122 0.02158969517803433
Ar -1.275042289994735 0.7590733008875213 -1.752838783757046
Ar 1.010429835081349 0.2674077387414237 0.7873023416941204
Ar 0.3130646990775817 0.7894891724176964 -0.7474717695784451
Ar -1.153879555451936 1.795837781959557 -0.2294605998868851
Ar 0.639164243383899 -0.7211723206689394 0.4564061528836951
Ar -1.786035642680148 1.292735065543061 -0.9585289945766958
Ar 1.227555356429441 0.6003893795121626 -0.2264543407657051
Ar 1.240458698787785 0.9457237634477591 -1.298126215996032
Ar 0.1384672677852831 0.1897667695857077 0.1065496982141283
Ar 1.613869680300102 -0.3778768572777401 0.08312175578515964
Ar -0.1508789818712458 -1.483410792703138 0.6671091611298646
Ar 1.434786048730405 2.035792613185932 -1.428805811721256
Ar -0.3881947586422441 2.025851389478884 0.5928947104404081
38
algorithm=ase_bh size=38 seed=1 index=9 energy=-152.4855210213569 step=10
Ar -0.1792132794495452 0.9794264130883733 -1.633067451797684
Ar -0.6029211601920299 -1.051944784223939 -0.01751410688253717
Ar -1.56276541864674 -0.1341771218283786 -0.3125227487596255
Ar 0.2244516734970247 1.117579865648371 1.273286832680588
Ar -1.14457226503746 1.452424292411577 -1.353539353482706
Ar 0.2926648861843099 -0.7809923021690379 -0.6471070659567495
Ar -0.8723178684022526 -0.2022363666317369 0.6254684806267777
Ar 0.8583360766679963 -0.6167278253898476 1.141695418963041
Ar 1.524989120827522 1.490578260715788 -1.17358118207461
Ar -1.622708230963249 -1.227936951875795 -0.3947394383269143
Ar -1.88866931241833 0.1796040348764588 0.7488429685134719
Ar -0.02636254263337378 -0.04561749199453524 -1.363537374888924
Ar 0.6857534384947537 1.635316750723308 -1.8915607932675
Ar 0.5376106069890568 1.408245630956412 0.2326991600612278
Ar -0.4619678658369422 1.051402446085479 -0.56873289380926
Ar -0.1678716871136531 0.6158729045957221 0.3957879297900982
Ar -1.461254706163544 -3.34907971065179 -4.14766506032546
Ar -0.5050871878149457 -0.01362199133260622 -0.3841740747971482
Ar -0.2598704392825709 -1.024342347401141 1.087981742902789
Ar -0.8813228025794941 0.7396268192303437 1.222281311044632
Ar -1.195476306571094 0.7795045551413303 0.1692547825290364
Ar -0.8595878531231179 -0.7528443763218167 -1.069506917844437
Ar 0.9815064859802297 0.3524548768237082 1.700080729487007
Ar -0.1244779407966178 2.100299298106044 -0.3094171251622466
Ar -1.052595569920938 0.3571598108706345 -1.230559710435209
Ar -1.835063386299304 0.9066332292999033 -0.6855365626413038
Ar 0.8565478201006395 0.4288215262417306 0.625750959010733
Ar 0.5028881963743957 1.364783081755324 -0.8442835204245428
Ar -0.2201453099241857 2.040514545678915 -1.382469204098619
Ar 1.213958168954677 -0.4141973640751005 0.01004226941197236
Ar -1.213714468614709 1.791854685073901 -0.3019620695000033
Ar 0.5091069004981618 0.3563361080004102 -0.4399983335175772
Ar 0.8794383725397217 0.5839856372002691 -1.487236232045682
Ar 0.1874736644690828 -0.3900360859757576 0.3405080646653386
Ar 1.781814737873676 -0.04779656241775467 0.948496669762283
Ar -0.0186235594437229 0.04247424294940152 1.321480807196086
Ar 0.7820936320405321 2.385957457289913 -1.022736997598082
Ar -0.5433876628654341 1.599995312648438 0.5708841294034036
38
algorithm=ase_bh size=38 seed=1 index=10 energy=-154.0634341441882 step=11
Ar 0.6326311516567158 1.418008938927135 -1.581339093419751
Ar -0.8416124454741367 0.01709957002438901 0.09741687741387263
Ar -1.755222810118942 -0.09764764329240759 -0.4988874882367153
Ar 0.7641127836767695 0.1545906635338068 1.79053702237441
Ar -1.154303989816677 1.204676421654581 -1.649818176149956
Ar 0.06771613605881351 -0.05520363332400246 -0.7755531183874249
Ar 0.1589626407137293 0.3504330019790808 0.1918106107044367
Ar 1.360014749867763 -0.5246503356934989 1.014483051386118
Ar 1.623640857959257 1.182900713659849 -1.122616909213009
Ar -1.282713424395196 -0.9854951252537602 0.05861107605095753
Ar -0.7975432500968823 -0.5992464879803782 0.980896313047746
Ar -0.1896330584750398 0.64822863714371 -1.622357302626303
Ar 1.390053057911425 0.8668350060972378 -2.175972486295734
Ar 0.5194618664313504 1.368149654347182 0.3567714704251164
Ar -0.8585642144677192 0.6099461295298353 -0.7612227555809554
Ar -0.5760716329637605 1.102120192462356 0.2054055029360233
Ar -2.07694695756983 -3.569909646140021 -4.171820101967421
Ar -1.369662757954855 0.1127911251892915 -1.567368756721683
Ar 0.2743355846555902 -0.3615569255816151 0.9643825121653894
Ar -1.000430260185738 0.5192575329008554 1.043235536038938
Ar -1.781786741028952 -0.1631850159532286 0.6277556497799094
Ar -0.8536243365749084 -0.5737256745547633 -0.8637178660721591
Ar 0.05160532496018348 0.7899695301824168 1.169483248578829
Ar -0.1637517765633325 2.026196558226705 -0.1989112035741537
Ar -1.607823178190988 0.814219121062665 0.1088493893803378
Ar -1.927104312287639 0.8905838898813163 -0.945153573731942
Ar 1.048241506544316 0.4939111928597427 0.7854950852154984
Ar 0.130101425386119 1.035461501845468 -0.6482762534392981
Ar -0.3310428831044852 1.795904729619422 -1.263574187732899
Ar 0.8973033836060014 -0.3887046995511411 -0.01322068201258659
Ar -1.165727545440303 1.628065664372734 -0.5621182611675232
Ar 1.092263505296591 0.6849076395134562 -0.2953599813761792
Ar 0.8728582861418794 0.3867075264234554 -1.320601283471519
Ar -0.1468162814622669 -0.7912036322995746 0.03351759050713939
Ar 1.881414907494076 0.07089676518755827 0.1949612882547147
Ar -0.3576471869473165 -0.005136552434384272 1.805652329722772
Ar 0.8827177842456463 1.810643450757116 -0.5794128346639049
Ar -0.2907489520887156 1.842460717799934 0.9411318002705601
38
algorithm=ase_bh size=38 seed=1 index=11 energy=-154.6310330737291 step=12
Ar -0.02216006280555748 1.827358529858194 -1.050169122507589
Ar -0.154427186585822 -1.022888122074377 -0.3801765739778758
Ar -1.558465447354322 -0.1934850208873623 -0.2920863126330195
Ar 0.1519010123292329 0.2934679479619857 0.9813332693794876
Ar -1.111445468921366 1.647075288811485 -1.300193918465238
Ar 0.5618080303833096 -0.4502714971344882 -1.038589844140649
Ar -0.6591829747626058 0.0224386781418489 0.26418684818699
Ar 1.05603740031804 -0.2272015876976146 0.720776996380411
Ar 1.618179341920279 1.081687709215959 -0.4563497280621222
Ar -1.029140207886609 -0.9696318291015433 0.3566165326209271
Ar -1.631658881502009 0.06777779335272056 0.7620973834416327
Ar 0.08989239368487217 0.4210100921576311 -1.501448757521541
Ar 1.770018559282906 1.36742056665358 -1.512603223264418
Ar -0.1701257527714526 0.9782995674332317 0.2247750347657765
Ar 0.3106106482663069 0.03547844672182238 -0.1179480040868596
Ar -0.5355034287620017 0.9018014205713574 -0.7587158715250464
Ar -1.72541196024416 -3.150383387870979 -3.96789319522628
Ar -0.5829330012550091 -0.1530977988592972 -0.8257851864493353
Ar -0.7148930292250311 -0.3576960698389781 1.291121282314924
Ar -0.8209710011290369 0.7387695632726802 1.114107895412035
Ar -1.239754688483285 0.9089957095309023 0.1035186508964116
Ar -1.178311799875746 -1.1053680851822 -0.7603217856556699
Ar 0.3046329067482721 1.388631442159429 1.107794278654429
Ar 0.3858958559471014 1.854020454979001 0.02272491523092638
Ar -1.566363118978627 0.6660444568775685 -0.9555085567923099
Ar -2.270010306835176 0.6232347281382782 -0.06096373358423604
Ar 0.9170522208039935 0.8313928694359313 0.3676712318916208
Ar 0.5425527633878959 0.9612956594019193 -0.6465538373290005
Ar -0.7543485506661725 1.840984921595566 -0.2569684438728836
Ar 0.8966748806508651 -0.9418346357669677 -0.09566726510630948
Ar -1.842101178698061 1.620446763488366 -0.4547911639314118
Ar 1.204726524606299 0.4241857362465257 -1.326609332262897
Ar 0.683086388928791 1.320479633285732 -1.710797571486196
Ar 0.06481197987451422 -0.7481445124687857 0.6287490735260642
Ar 1.36159765219436 0.03300069482330972 -0.321111279105715
Ar 0.3937295972754691 -0.5321881945814269 1.648120731934203
Ar 1.057793297265098 1.933257191063019 -0.8584669131788816
Ar -0.6851364497270193 1.772935379408501 0.8092195339413016
38
algorithm=ase_bh size=38 seed=1 index=12 energy=-156.178207833907 step=13
Ar 0.2468485573534802 1.557770655767744 -1.845413707667371
Ar 0.01709236884859517 -0.7864967853693453 -0.2767087014341928
Ar -1.573255092752082 -0.3387225733723551 -0.1073555159778457
Ar -0.09536496862658028 0.132626148069026 1.431094662086106
Ar -1.330732882644139 1.594839221022897 -1.16682674904296
Ar -0.07026220426320164 -0.2080703867664513 -1.226203335320205
Ar -0.7897578529421712 -0.171804765484577 0.6731044192067102
Ar 0.917173835495241 -0.2375319738227369 1.2070688909476
Ar 1.400662557079746 0.8427348050872226 -0.6422424605973739
Ar -0.8810647070764214 -1.159290487333789 0.2234125905028241
Ar -1.070138686550229 0.6875585110720887 1.38894263052702
Ar 0.5743933826320881 0.6541262090830716 -1.360976751023973
Ar 1.393448652305765 1.285249772581819 -1.67338429745498
Ar -0.02430223134705233 1.83173312554513 0.1295038000927055
Ar -0.4825048724355245 0.8447329142469224 -1.241435273682463
Ar -0.7993557113941813 1.218881330697224 -0.2940181698236358
Ar -1.924433029824402 -3.562013320640932 -3.945297933090226
Ar -0.6001477303415496 0.1507795698066852 -0.3426359759617687
Ar 0.03602983491043626 -0.8904291335674192 0.8475201179447565
Ar -0.347945192407677 0.8647593194075345 0.5997958910304135
Ar -1.43304200757992 0.6398084193555414 0.3547602606578979
Ar -0.9194394431137087 -0.8117463856274181 -0.8405439362923525
Ar 0.6463152541795127 0.83917648721842 1.049509374086733
Ar -0.2938488898651471 1.906676903110561 -0.9580216996206719
Ar -1.103132674858534 -0.001794275427722928 -1.557077368033985