13
algorithm=ase_ga size=13 seed=0 index=0 energy=-27.69887849125516 step=1
Ar 2.140539145162164 1.338006194427485 -0.6448105235070195
Ar -1.447849247575038 0.7328204355662197 1.999541833592352
Ar 2.815035598246178 1.29798912719166 0.2489103948944152
Ar 2.534562776250878 2.285364639508476 -0.1908251851282734
Ar 1.942789706264971 0.5989826421124365 0.1727735943043236
Ar 1.758235271361897 1.690141030252448 0.34769363520829
Ar -1.668961817053575 -0.6560005491944846 0.8385286907221506
Ar -0.9860878735268268 -0.2047535701287031 1.601258697445793
Ar -1.583281811521244 0.4561970853548814 0.9243553091045154
Ar 2.208344881275968 1.066711088803857 1.157433933392275
Ar -1.58983775365123 -1.11074820743611 1.857271864024803
Ar -2.101374163803982 -0.1291337780784207 1.734490559163646
Ar -2.579754683279636 -0.01514839717344908 0.7352569982443837
13
algorithm=ase_ga size=13 seed=0 index=1 energy=-29.07106002698915 step=2
Ar 0.04550182317016046 0.5398928148933684 -1.950526617940259
Ar -0.7043755064560633 -1.073341128645337 -0.4850863809384198
Ar -0.6516593096426064 -0.1229886789672459 0.09850450529957767
Ar -0.3484155299153029 -1.127484378671194 0.5663696167191016
Ar -0.7561423780144648 1.283197921627645 -1.703487025451925
Ar 0.2928788372686967 -0.6302471614578699 -0.2077453033311506
Ar -1.419283234343935 -0.8871153821341072 0.3604532016289529
Ar 0.191439941046125 -0.1920829877197485 0.8263024796988157
Ar 1.034784590681631 0.9477300469467077 -1.617604651120141
Ar -1.131090555686983 -1.418311520315958 1.302947521741806
Ar -0.8657141969895946 -0.3393340297459916 1.170544391338493
Ar 0.1134477564985124 1.14476911774509 -1.009585684955944
Ar 0.2552362367987759 1.64408993644885 -2.013948726199156
13
algorithm=ase_ga size=13 seed=0 index=2 energy=-28.38339481899671 step=3
Ar -0.9097088393392848 1.142520899484873 -1.803509401492719
Ar -1.592958379956921 1.464423195339148 -0.03024564935142752
Ar -1.112563451875943 0.493593741841739 0.2511223757600733
Ar -1.254369236378162 0.7511049268145851 -0.8193589438801591
Ar 1.101408888808496 -2.708509301374429 -0.5820611443481828
Ar -1.008813330767129 1.379063669397072 0.9186141122774121
Ar 1.929185265064646 -2.568137380013505 -1.327046408967928
Ar -1.892227899849366 -0.2219534786556908 0.5772329028406469
Ar -2.155275220775649 0.5214039749192878 -0.2121227645309211
Ar -2.514284016841608 -0.5297187406809497 -0.2970463133419146
Ar -1.434281951782953 -0.290666476702911 -0.4628414430763313
Ar -1.712898019850654 -1.211436452427194 0.09486944808146125
Ar -1.995106123959952 0.8593881583858477 0.8328095464805351
13
algorithm=ase_ga size=13 seed=0 index=3 energy=-31.33912182667915 step=4
Ar -0.5216004052695566 0.2730234635983895 -0.9156377368793207
Ar 0.5256830181324502 1.345543041702567 1.693076081785115
Ar -0.866823974657859 -0.745486459095235 -1.273617003180728
Ar -0.1413331555899112 -1.510624673360925 -0.8539548928804112
Ar 0.6190104253097932 -0.9481353161229898 -0.2299055495485989
Ar -0.1622711938566558 -1.565628763422582 0.2616350470977476
Ar -0.4504471972541831 -0.6222257191129604 -0.2628042599742853
Ar 0.2136655243457787 -0.516430894127064 -1.170097095380086
Ar 0.5130392385932422 0.5450295245712384 -1.262164012234687
Ar -0.2650240692688886 -0.5964354276290367 0.8215458508638978
Ar 1.59483488167622 1.015307972075277 1.778904327344387
Ar 1.22806853804709 -0.2216067292528409 -0.8441683844107359
Ar 0.3569543994335035 0.1276181594380313 -0.2335194684579959
13
algorithm=ase_ga size=13 seed=0 index=4 energy=-20.47113381713482 step=5
Ar 2.189293505351038 0.3005060759017125 2.18695240696208
Ar 0.6888199906648349 1.164329446484078 -1.103702935529876
Ar 1.339884457375115 -2.289577077044942 -0.8135968826720044
Ar -0.4162197270839914 1.248496857878668 -1.225873504348211
Ar 0.2119925041261511 2.168490324807968 -1.270075359158197
Ar 0.3086672012605691 -2.133006819417672 -0.4011833002473527
Ar -0.7717461820517197 2.179961120044386 -0.7268554375347863
Ar 2.034378836158654 1.285375184102608 1.671049295546749
Ar -0.6764372242341978 -2.115004314257849 0.1302561019494096
Ar -0.9032087971815443 1.182745441654732 -0.2248433894629083
Ar 0.1065755939542663 1.65185950217077 -0.2875138476504575
Ar -1.534108838911419 -1.400480634378922 0.03029693558238306
Ar -0.0007332458170390705 0.5544344782545716 -0.4579288571289853
13
algorithm=ase_ga size=13 seed=0 index=5 energy=-34.81580865197424 step=6
Ar -1.32932588504194 0.4303193303162821 -0.8254662770982726
Ar 1.085787693401847 -0.4280980104913517 0.427531714312583
Ar 0.5419646471414867 -0.7485024807165435 -0.4957503559738637
Ar -0.6378206513303364 -1.855446711253859 0.5010034396194633
Ar -0.6648646903173542 -0.8118489501995547 0.8734433567740063
Ar -0.348697004845857 -0.09851979442686649 -0.76606183600436
Ar 0.01527475410792142 -0.1616094881868932 0.2878092378269382
Ar -0.4811216750922594 -1.03829462741736 -0.2189446273530881
Ar -1.325678441266239 -0.6883142976253742 -0.8272452510526211
Ar 2.109646525208817 2.008312332467556 -1.389685785571431
Ar -1.489759461248168 -1.163175832212302 0.1950890413955576
Ar 0.3106422143678874 -1.226359181496938 0.51430926753105
Ar -1.072303142524164 -0.1310175307916762 0.099512519570949
13
algorithm=ase_ga size=13 seed=0 index=6 energy=-35.42251854043231 step=7
Ar 1.561416145241349 -0.5588379021237078 0.578014789807891
Ar -2.154756923177708 -1.844649866513522 0.4468631039324777
Ar 1.48829198316245 0.3459567587769732 -0.04445363529887084
Ar 0.5877044199063308 -0.3244459132222162 0.0953232561603351
Ar 0.4028841570403978 0.7425469667694399 0.06621514550205068
Ar 1.957384151152793 1.187561657193249 -0.5691643609464654
Ar 1.409794890573019 0.9614997203029569 -1.543318122183496
Ar 1.299779681875038 1.33394720277416 0.3694999604980273
Ar 0.8192369779772108 0.259861135596502 -0.8819015853112656
Ar 1.9602567866973 0.166576298761973 -1.02486194368141
Ar 0.8823825879234088 1.370501231372702 -0.6724078020568992
Ar 0.9868404501077678 0.3564261831444918 0.9248764264404893
Ar 1.414979148013416 -0.6559395149435374 -0.5410619344597157
13
algorithm=ase_ga size=13 seed=0 index=7 energy=-40.96700191147219 step=8
Ar -0.6049957527708641 0.5858316005407409 -0.144359654677473
Ar 0.4409086518558417 0.2754896368710362 -0.3588056999101938
Ar 0.5199131098866235 -0.6933106811463972 -0.9322175753356028
Ar -0.02602137581656304 0.06922451648841391 0.6575474963806487
Ar 0.1144021344667293 -1.539269132606855 -0.2992207670682292
Ar 1.421739727059995 -0.2658706523383029 -0.410119586002745
Ar 0.7868654497273898 -1.618375802368727 0.6423841097728769
Ar 1.583661656900449 -0.8201335336706007 0.5543807995614815
Ar 1.230292443969659 -1.372823646301866 -0.3690026908449415
Ar 1.091159375037996 0.2001632748328747 0.5605026514346809
Ar -0.3893013683796044 -0.4990047644632017 -0.2917369959481301
Ar 0.7001647464189475 -0.6230852880183618 1.231430646647135
Ar 0.5759252555519497 -0.6750250874876578 0.1584638395681382
13
algorithm=ase_ga size=13 seed=0 index=8 energy=-33.19589289911473 step=9
Ar 1.167253453569215 1.358032583644912 0.5251489770672257
Ar 0.3070888824464007 -1.186198916875265 -1.062650311099114
Ar 0.1335738725107713 -0.4269288533391052 -0.274663961618352
Ar -0.2366658534629771 0.2308044114735452 0.5487868269584396
Ar 0.6351581315266064 0.5924684892123825 1.134194827287258
Ar 0.007929042115706839 -0.2484046611346786 1.524345402087538
Ar -0.595959719057427 -0.5247861652902158 -1.107423101340477
Ar 1.364257091565505 -1.375285969394377 -0.7711087921016265
Ar -0.5221356213501638 -1.33272428674818 -0.3315447219486679
Ar 0.7063326583225578 -0.4151223884943412 0.6679666492700012
Ar -0.9634549875073336 -0.3369050132219857 -0.07010042365349259
Ar 0.6977754597013979 0.4877934708938661 0.009962499806673379
Ar -0.306395110810133 -0.8766828677007601 0.6565404195512583
13
algorithm=ase_ga size=13 seed=0 index=9 energy=-27.72149368345985 step=10
Ar 1.134749914049421 -0.9498648268260061 -2.066652320987908
Ar -0.3420431867440911 1.202758702233072 0.5699524033463315
Ar 1.100273660534554 -1.794823300219473 -0.4487596966604644
Ar -0.6154531031581755 0.1254049823628054 0.37503870938992
Ar 0.733231725326314 -1.832754981468899 -1.506424714883509
Ar -1.645203727412252 -0.04129336457799347 0.8148674452336054
Ar -0.717378701111676 -0.4594963904902585 1.309130377111252
Ar -0.9368279730575668 0.6368840057946943 1.328222556196326
Ar -1.093176351037252 -0.878187369103806 0.3386977263105341
Ar 1.762319860677984 -1.441620443403837 -1.280520738247209
Ar -1.66961654731671 -1.042761790609319 1.298231737526859
Ar 0.8554814879756252 -0.8435131056303671 -0.9862431963040432
Ar -1.399615648758208 0.923650485239799 0.3325050781761834
13
algorithm=ase_ga size=13 seed=0 index=10 energy=-33.85275802362217 step=11
Ar -0.008316347154372053 0.216587068721925 0.1396855740250408
Ar 0.6101700219725262 -1.497688935709955 0.6420304981915365
Ar 1.442281630775112 -0.7589744023838348 0.6573973092852735
Ar 1.368484535497103 -1.470388690887685 -0.1965398076488311
Ar 0.4134001096386642 -0.4342260742950274 0.9585099078963473
Ar 0.5974055787414853 -0.6808207583375681 -0.105024454921615
Ar -1.684857317505468 -1.64536367063963 0.4542791038323922
Ar 1.07812883007781 0.2391571509405568 0.3645112969242769
Ar 1.721948645559268 0.7133009166314365 -0.4045754073462937
Ar 1.119565672726713 1.123939642305687 -1.249237316866693
Ar 0.7438319253072644 0.2370223149615897 -0.6944823652997839
Ar 1.630067610645873 0.1293721593065609 -1.359759582123871
Ar 1.628556468746279 -0.3946791648058004 -0.3788202520102641
13
algorithm=ase_ga size=13 seed=0 index=11 energy=-35.80959574755254 step=12
Ar 1.703084200277644 0.7519975203977798 -0.224352699647176
Ar 1.552953483686085 0.7940676662911591 -1.335523807814254
Ar 0.7258820223371559 0.4508197128330791 -0.6714634260771755
Ar 1.641232469972783 -0.194270052166137 -0.8247271750210665
Ar 0.6425428337466951 -0.6550362694831133 -0.6695703714536634
Ar 1.170913175031591 -0.1387477120163998 0.1819917751945639
Ar -0.30574857922204 -1.764046250323835 0.4738811922561249
Ar -0.448430557802157 -0.7031608684150594 0.7903340150361572
Ar 0.07398482089959757 -0.03469709609159125 0.07907324515732324
Ar -0.3527497278674468 -0.9831091673522792 -0.3155622824034963
Ar -1.273011718357055 -1.231740893406407 0.2590511301067286
Ar 0.5287743435312638 -1.025117765643247 0.3720477941679204
Ar -1.031939770455003 -0.1632498597627395 0.004266613593121021
13
algorithm=ase_ga size=13 seed=0 index=12 energy=-40.17718772482445 step=13
Ar 0.6739676113657062 -0.6018317446809258 -1.075096570345982
Ar 0.1646355833450089 -1.459907115314978 -0.5091467350384029
Ar 1.504723612733271 -0.2377366254352558 -0.4315879718694366
Ar 0.6598980937397491 -1.518200370026911 0.5279295717690492
Ar 1.500611662454096 -0.7771072317977538 0.5382289401898047
Ar 1.257710899638531 -1.314137255821716 -0.4105051936978013
Ar 0.5378736962837947 -0.5708778588483113 0.008151145274608709
Ar 0.000981083195547819 0.2606788449919872 0.4858182316504309
Ar 0.5723104838654586 -0.5129955461815513 1.096011749165719
Ar 1.108948131424236 0.2675752694756795 0.4689202872189844
Ar 1.526067977256798 0.8676208926921581 -0.3869451268118448
Ar 1.25554970814142 0.3267324493797156 -1.348225866485739
Ar 0.5380800702745268 0.3811587749136233 -0.5044726420355156
13
algorithm=ase_ga size=13 seed=0 index=13 energy=-41.04458335482997 step=14
Ar -0.3401954988423758 -0.1884820014480576 -0.3634253621795717
Ar 0.5826363908791355 0.4587140189929565 -0.3273808710736109
Ar 0.05446561209783975 0.2337177372103606 0.6440393950954302
Ar 1.529913670531671 -0.866480653283085 0.5110435007881091
Ar 1.18547488649706 0.2098000150524036 0.593949803737113
Ar 0.6544880138428401 -0.6028694829325504 1.175647875520437
Ar 0.5561442082819639 -0.4670748125847975 -0.9885368470042714
Ar 0.010803993264579 -1.292575616013658 -0.4459742047987584
Ar 1.487064498191413 -0.2141356670866645 -0.4007320947159201
Ar 0.62750614464281 -1.547020071890882 0.5013857909411646
Ar 1.142859913121524 -1.280316138124358 -0.4702165792821856
Ar 0.5698783424704805 -0.5450269465764799 0.09934455245533663
Ar 1.178196331894347 0.413281304980533 -1.266930340440699
13
algorithm=ase_ga size=13 seed=0 index=14 energy=-43.89940494334297 step=15
Ar 0.7169670756210902 -0.5797723397682051 -0.9996195436230013
Ar 0.04846871053574277 -1.132972870642703 -0.2640819464099952
Ar 1.623445485177988 -0.1952013905429012 -0.4301247222854309
Ar 0.5417935112343049 -1.090280503606248 0.7599949560752508
Ar 1.515187456484141 -0.5107012791917942 0.6573771832005741
Ar 1.179738696526843 -1.210811818797427 -0.1740463645438105
Ar 0.6541005737381358 -0.2899771230986334 0.04078267584563529
Ar -0.2069798154222659 -0.0692500900864696 -0.5758107543169033
Ar 0.5912373076973304 -0.0001800056893960989 1.081186144292739
Ar 0.7664119337465155 0.5103372110388195 -0.6784301010293765
Ar -0.3152506222022379 -0.3847699415751497 0.5116957110067474
Ar 1.259729429698868 0.5530220095103824 0.3456441452782156
Ar 0.1284584800206757 0.630846674280339 0.2556108452125933
13
algorithm=ase_ga size=13 seed=0 index=15 energy=-43.89940492742771 step=16
Ar 0.6841424544009731 -0.5756156476827662 -1.029472176741203
Ar 0.0277853402494416 -1.244437977093385 -0.3846409508775847
Ar -0.2185805030532923 -0.1391575725465147 -0.4923046774525925
Ar 0.7610795504344285 0.4383002541387173 -0.5195976890316212
Ar -0.3009175812248078 -0.6438674564977117 0.5237759177481437
Ar 0.1522908387826132 0.39612661121115 0.4403600668266333
Ar 1.612905991430369 -0.3100735353151733 -0.4287712345605947
Ar 0.5508897138045697 -1.392269921849883 0.6145635885605322
Ar 1.530548859491191 -0.8148193863510849 0.5873001140489932
Ar 1.159709167428575 -1.350068866416065 -0.3453892133766815
Ar 1.284198700291777 0.2904759472934219 0.4796301719648711
Ar 0.6278409503916198 -0.3783450249182486 1.124457428829108
Ar 0.6559909345384507 -0.4769795160784667 0.04749263503868652
13
algorithm=ase_ga size=13 seed=0 index=16 energy=-38.40308536729383 step=17
Ar -0.2524442641839117 -0.190394776271761 -0.509948448963892
Ar 0.6436749664891318 -0.5927937194596143 -1.074313120577895
Ar 0.1318607742412908 0.2557268203299314 0.4579296442113409
Ar 1.531822161772644 -0.9039516736719975 0.5733204087824816
Ar 1.251114874205787 0.1633333219343761 0.4629427369429691
Ar 0.6431412235879487 -0.4854946907314502 1.128862200920126
Ar 0.6121014651221752 -1.525586684661253 0.7153182303134809
Ar 0.5908550224020797 -0.6551935572012269 0.03208412443746127
Ar 1.782239815873797 0.6534038033862375 -0.3896757008419429
Ar 1.073237823762642 1.219607196393968 -1.044793918116733
Ar 0.7184915092042079 0.3363072123989103 -0.4802035933080956
Ar 1.399884405543547 0.1917172080565588 -1.345763063902686
Ar 1.55566592448635 -0.4311608085562932 -0.4391857141897734
13
algorithm=ase_ga size=13 seed=0 index=17 energy=-40.17718769261417 step=18
Ar 0.6651316204176916 -0.6224517476802227 -1.048240027759389
Ar 0.148631894800788 -1.462313047887195 -0.4618206766584114
Ar 1.527292058231842 -0.2816034792800737 -0.433981336347264
Ar 1.248300171067008 -1.349821809025903 -0.3996710871208456
Ar 1.583858589695389 0.8227424882892844 -0.3953466174027814
Ar 1.265535465489946 0.2867826291232982 -1.344673957737181
Ar 0.5781425772888303 0.3664010387399477 -0.4781912618220819
Ar 0.07043977554736275 0.2662596943531152 0.5297087242059484
Ar 1.538518818378737 -0.8169230862145045 0.5380296823378026
Ar 1.176937871011899 0.2390267801150883 0.476555001811475
Ar 0.6375449630558453 -0.5222885161720657 1.124599254859643
Ar 0.675633980950477 -1.531859342296279 0.5587811731327023
Ar 0.5656631981513751 -0.5832186903334908 0.03872836782352024
13
algorithm=ase_ga size=13 seed=0 index=18 energy=-38.4030853763361 step=19
Ar -0.2651366777964334 -0.1813958150255978 -0.4923055969967912
Ar 0.6299863888257018 -0.5556668686637866 -1.077254860954551
Ar 1.764794511201152 0.6706453373091638 -0.3517010634000097
Ar 1.048071017053061 1.257058657641299 -0.980099000121069
Ar 0.7025650013520782 0.3502076833562869 -0.4480281521634396
Ar 1.379405867523134 0.2437966820204275 -1.322646841672575
Ar 1.544904579748435 -0.4126784752159035 -0.4418670215803241
Ar 0.122393137840074 0.2294068044932279 0.4898147823066746
Ar 1.530454970820396 -0.9245376011188471 0.5516352542263691
Ar 1.242221377544853 0.144347354895047 0.4844603911908875
Ar 0.6426528411929301 -0.5338425391810878 1.128379683888692
Ar 0.615635603934825 -1.557299438890983 0.6749667282288723
Ar 0.5845282320182617 -0.661235068091472 0.02617305568383728
13
algorithm=ase_ga size=13 seed=0 index=19 energy=-40.96700191306943 step=20
Ar 0.6404655170867696 -0.6345491298479056 -0.9985599117936587
Ar 0.03135822112646159 -1.032993433419284 0.6966404761524057
Ar -0.2660336585640461 -1.031136230131841 -0.4011381318996528
Ar -1.022200605721575 -1.223297358916766 0.3966212939069579
Ar 0.7867378555257417 -1.303002095065629 -0.09715241422007953
Ar -0.622747813791951 -0.1846333967129496 0.3145531372291754
Ar 1.460221626507871 -0.4056812218266392 -0.2546550132545075
Ar 1.084468407224877 -0.6554230272948487 0.774971189520776
Ar 0.4041277529428511 -0.2842595146588769 -0.003151066547820832
Ar 0.2258257956433186 0.02807680375300781 1.028218405969788
Ar 0.8456585225063145 0.4546705146780597 -0.6570752851529216
Ar 1.113256959649038 0.4177188831161493 0.4414840952392891
Ar 0.06529946780439964 0.7303550966627201 0.1554034716319325
13
algorithm=ase_ga size=13 seed=0 index=20 energy=-36.10398812469768 step=21
Ar -0.3417284615187291 -0.7654390464232858 0.7379271357373313
Ar 0.03665130691416007 -0.01984240133887795 0.008522638999687209
Ar -0.4289817894555005 -0.9634478724889526 -0.3747397381417452
Ar -1.248519048454591 -1.26202204491337 0.3187942541272781
Ar 0.5535333469029694 -1.019218657693635 0.1368509916251548
Ar -1.059349311587323 -0.1768912519898723 0.104643649446278
Ar 0.4736028152216948 -0.5507689515361079 -0.8691290373721431
Ar 1.130783639253902 -0.08978094508190208 -0.06196985968809792
Ar 1.588281382794531 -0.9055924257739958 0.5342490420774825
Ar 1.424967048969883 -1.039939740175744 -0.5660036983971881
Ar 1.611738890990574 0.8187460512541109 -0.4788118884258951
Ar 1.442358507196072 -0.07323115232941838 -1.131802930661539
Ar 0.5700006045859056 0.5510520470695732 -0.7879244747253636
13
algorithm=ase_ga size=13 seed=0 index=21 energy=-41.01720052600815 step=22
Ar 0.5610868728081053 -0.480914145894582 -1.149104752696546
Ar -0.1358421503227467 -1.126818525067895 -0.4826315457165753
Ar 0.9874515197393736 -1.17339816610947 -0.3613698763380748
Ar 1.602827657849534 0.9584723108653328 -0.5083602685056376
Ar 1.418150536472061 -0.139211246077784 -0.500965653257411
Ar 0.57114153782597 0.5895274506986029 -0.713913723562006
Ar 0.3209440044118574 -1.154084621569622 0.5526924253369798
Ar -0.5465687118890512 -0.4512788476430752 0.366159520549217
Ar 1.27215316193929 -0.5512381278263613 0.5331737222401913
Ar 0.4153378227339271 -0.281113884624331 -0.09639997485150859
Ar 0.3386932445637252 -0.1063520666382033 0.9793596167915772
Ar 1.01558721207805 0.5229185594822134 0.3309899998357023
Ar -0.1033620675891075 0.6119687230189719 0.2240980849543522
13
algorithm=ase_ga size=13 seed=0 index=22 energy=-40.96700194782833 step=23
Ar 1.09944919004381 -1.189155049468102 -0.2605398082816672
Ar 1.652697839266953 0.9673346342787238 -0.5783994611346219
Ar 1.515807492414214 -0.1370480657347003 -0.4964137708675032
Ar 0.6119933175395221 0.5758677928774198 -0.6722015590853228
Ar 1.448815933106851 -0.503588731849133 0.5693281864443973
Ar 1.154131962897573 0.5586170556516163 0.3274783692468088
Ar -0.05847855972317259 -1.131238384455439 -0.2911840554817654
Ar 0.4983493604126101 -1.107612646967158 0.6932983675855195
Ar 0.5572259378658516 -0.2843615951096854 -0.02233147384073204
Ar -0.3578566243352967 -0.0396502532113632 -0.5439947593518524
Ar 0.5401396020317029 -0.04193638482966644 1.048665124475772
Ar -0.3807770349875993 -0.4141669604279457 0.5223088345875996
Ar 0.02764135497294819 0.6174255098597046 0.2929178378222006
13
algorithm=ase_ga size=13 seed=0 index=23 energy=-40.17718773244216 step=24
Ar -0.4035548459916561 -0.152907969673913 -0.6421624190358578
Ar 0.5605873715783836 -0.546207946404669 -1.09558142404237
Ar 1.492501216097435 0.9593796839706151 -0.6226610251667665
Ar 0.493503542433376 0.4893576482507654 -0.6956907991524381
Ar 1.231844443462315 0.2723445065631896 -1.488593324684105
Ar 1.43316036336825 -0.137027313787774 -0.4778886153049632
Ar -0.1138889246698056 -1.202009711639519 -0.4390382759261168
Ar -0.4971776692574887 -0.5365045559318788 0.4179229226936428
Ar 1.386184039565838 -0.4210805251975904 0.6179031876856456
Ar 0.4892250024372536 -0.3926541023205978 -0.01658379904726175
Ar 0.3780197767705276 -0.07636294223343257 1.020514820813927
Ar 0.9796925666319071 0.5579670874746863 0.2951705964322038
Ar -0.1343021942062717 0.5051138357441634 0.219236105048667
13
algorithm=ase_ga size=13 seed=0 index=24 energy=-40.96700193132202 step=25
Ar 0.4166118111314991 -1.064265604644399 0.5972739342144805
Ar 1.404901212884387 -0.5568022760932659 0.4439503971764261
Ar 0.5040548573984739 -0.2180535462570911 -0.08504063856450184
Ar 0.5781574024385548 -0.01717817891511321 0.9860474990371074
Ar -0.4035440956431887 -0.2828451229476561 0.4958134177158149
Ar 1.227154503180553 0.5340468484323669 0.2386972889862734
Ar 0.1135965158577469 0.7258493026090502 0.2699086446772875
Ar -0.1643266237165537 -1.013087007687359 -0.3791770023925922
Ar -0.6520604888720335 -1.368808614412206 0.559264370800967
Ar 0.4992915801678486 -0.4515699070631644 -1.14090215501479
Ar 0.9543013997936243 -1.165407437822333 -0.389789859265914
Ar 1.459825673863437 -0.1762276720138849 -0.6123788037594676
Ar 0.67072052625033 0.6239513330705381 -0.7421810578700369
13
algorithm=ase_ga size=13 seed=0 index=25 energy=-43.89940491332804 step=26
Ar 1.479242186694205 -0.5100850852227277 0.651553401582776
Ar 1.205940920071952 0.5531277362270409 0.3535409123146013
Ar 0.5166299621120343 -1.110496167262983 0.7339923963993603
Ar 0.5405528437355717 -0.02483010891031127 1.072668820123065
Ar -0.3516134463703564 -0.4183683007618514 0.4869283128646107
Ar 0.07440216815364192 0.6098194545080303 0.2517933668238873
Ar 0.7010411412907415 -0.5688250382618321 -1.015342255565752
Ar 0.03569560747535737 -1.146830653135098 -0.2961995101028229
Ar 1.593217702850123 -0.1753009589666953 -0.4296028966913512
Ar 1.167222702059555 -1.203485884604651 -0.1944741044559437
Ar 0.6208042242136314 -0.2968402695917459 0.02866674471742727
Ar -0.2376487974962107 -0.08362033857955818 -0.5942089881683337
Ar 0.7249666235678911 0.5168250341022788 -0.6766502360421074
13
algorithm=ase_ga size=13 seed=0 index=26 energy=-41.01720049305089 step=27
Ar 0.4018004642869731 -1.24609339974664 0.5925637968657577
Ar -0.5084138767013908 -0.5904783963263648 0.4409404807895628
Ar 1.329185581511233 -0.5980844001659164 0.6056395282718398
Ar 0.449505352779241 -0.3161788119125782 0.02222351813780498
Ar 0.3785877808087065 -0.2332869973537515 1.097528903495018
Ar 1.030580622856484 0.4841822735100162 0.4594145434901096
Ar -0.4044085048027604 -0.09373973211849002 -0.6028549583868333
Ar 0.5398016377491951 0.5721250519554848 -0.5830578599592072
Ar 0.5611422472645751 -0.4636931398136447 -1.052584040704352
Ar -0.07188703752865148 -1.162327813066469 -0.431494435007251
Ar 1.430533360269739 -0.1135578362012475 -0.4090088682704695
Ar 1.049329037894738 -1.166296700276275 -0.3255750275653392
Ar 1.247899904240305 0.335692001412448 -1.410956570749501
13
algorithm=ase_ga size=13 seed=0 index=27 energy=-40.1771876857506 step=28
Ar 1.476452370465972 -0.4385320001044827 0.5789063808753033
Ar 1.092703844251308 0.5589199489842182 0.2861135747018364
Ar 0.5449399270356468 -0.368165166541654 -0.0001167380534939987
Ar 0.50965929958131 -0.05522384034829581 1.043341886379735
Ar -0.4187114550426778 -0.4741195715802011 0.4924555689657134
Ar -0.02507693703344967 0.5529673663765764 0.277328601293111
Ar -0.3729942574025216 -0.08687217154903173 -0.5694525382346081
Ar 0.5447810397504446 -0.5165203639169568 -1.082202494203613
Ar 1.565825356492589 0.9454266863559719 -0.6590313095357206
Ar 0.5453795874900909 0.5179345335092529 -0.6739044475888839
Ar 1.224947136278355 0.2762842963576515 -1.511005878738586
Ar 1.46931949152018 -0.1485923121082668 -0.5163176926622497
Ar -0.115894481221622 -1.148589614861198 -0.3893639177751136
13
algorithm=ase_ga size=13 seed=0 index=28 energy=-43.89940493400415 step=29
Ar 0.5377516541422546 -1.105853616043283 0.7104631260726448
Ar 1.522087254860059 -0.5536872749548659 0.5685084478068104
Ar 0.646931197936138 -0.3170309306975078 -0.02180486316180943
Ar 0.6266261369347148 -0.01389043587537459 1.016495281470337
Ar -0.3082502988449855 -0.3805292616987623 0.4821456751137504
Ar 1.284432932033807 0.5128792529314752 0.2524547728651234
Ar 0.1532329610303225 0.6199005546783857 0.1990853766444577
Ar -0.2282109565943986 -0.08034814310616484 -0.6121320133277577
Ar 0.6672442044872334 -0.620164041614927 -1.060107627357402
Ar 0.009423679791472848 -1.146925182597601 -0.2960880930067218
Ar 1.602108742314863 -0.2535278536568865 -0.5257648119015358
Ar 1.140633686921414 -1.253956469781013 -0.2426993416587429
Ar 0.7561183875697733 0.4717903027690209 -0.754079697068805
13
algorithm=ase_ga size=13 seed=0 index=29 energy=-43.89940493471242 step=30
Ar 0.6712979691944717 -0.5193233826540287 -1.059319714143057
Ar -0.004625046653223942 -1.189716648652551 -0.436732723769108
Ar -0.2222047482173053 -0.07578921771820063 -0.5126221030537447
Ar 0.772012441939566 0.4768739996715122 -0.5195223585211888
Ar -0.3216782151098957 -0.6078455026413282 0.4878449736611578
Ar 0.1583071224489009 0.4221675105673174 0.4366767024478696
Ar 1.504541528033378 -0.8275337534116429 0.5526084686632515
Ar 1.286979771747441 0.2863931054699616 0.4767006126754719
Ar 0.6110341223714373 -0.3840155497045465 1.099282054801031
Ar 1.604030479222784 -0.2954756332015058 -0.4478751392172217
Ar 0.5103468725537859 -1.380213540665076 0.5594803547459559
Ar 1.124042377790818 -1.325489153699462 -0.3967170992803005
Ar 0.6411765562751625 -0.4516625349554381 0.01998303127400472
13
algorithm=ase_ga size=13 seed=0 index=30 energy=-39.11675096458722 step=31
Ar 1.689212122669739 0.9412532246176679 -0.5871007108145475
Ar 0.6169269300329692 0.6856291524205343 -0.7764999374484327
Ar -0.550587882274621 -0.4009249220185797 0.4103201464468257
Ar 1.269700127546846 -0.556628863612309 0.3885452068410945
Ar 0.3647658944265491 -0.169892648600165 -0.1427533920919599
Ar 0.4121808148638606 -0.09570305139838557 0.9438457112558697
Ar 1.085965064827614 0.5374457362998402 0.2597890383374127
Ar -0.2469457081266729 -0.9803218435468357 -0.5319867289866301
Ar -0.7239904582747148 -1.502986950542785 0.3302392394172949
Ar 0.307318109271216 -1.106622271610458 0.4561715934312586
Ar 0.4327654652805935 -0.3527605933483132 -1.215317765395508
Ar 0.8626438850766035 -1.104124141773549 -0.5034153971740017
Ar 1.36617844016199 -0.1220558517097117 -0.6268582701413227
13
algorithm=ase_ga size=13 seed=0 index=31 energy=-43.89940490316594 step=32
Ar 0.03831866353478758 -1.102435712297424 -0.2784336669095732
Ar 0.7375612945324053 -1.045095860281282 0.6169644862035254
Ar -0.2777220550797704 -0.04298901175849323 -0.5460504300604201
Ar 0.853630118765165 0.04979527508099001 0.9027486370491675
Ar -0.1528656428579552 -0.3409304505436479 0.544646704735008
Ar 0.2261332800578917 0.6691178476490205 0.1839751145010036
Ar 0.5355299909562679 -0.5630543704022908 -1.147795053063906
Ar 0.6945734210668528 -0.2566253793786779 -0.1225227245412242
Ar 1.666883775331345 -0.4702344565490623 0.3009883561039184
Ar 1.162985305897773 -1.182384718982632 -0.4290097426429132
Ar 1.350797866794102 0.5892112669984756 0.03338952904815112
Ar 1.54202315366329 -0.1723372933208222 -0.7896818937260994
Ar 0.6516112882139591 0.5318410098927344 -0.8620172080289517
13
algorithm=ase_ga size=13 seed=0 index=32 energy=-40.96700192206152 step=33
Ar 0.5235329983142416 -0.2655984358831644 -0.05997268813252624
Ar -0.3464129794783294 0.1208014582729454 -0.5956481599781632
Ar 0.6649345677815669 0.6249955994720693 -0.6765597324517815
Ar -0.4378823753972917 -0.3598739918974062 0.4218239627612796
Ar 1.236548904497105 0.4690202344842546 0.2871767927202858
Ar 0.09255895744245236 0.6595026065326918 0.2975921252844447
Ar 1.412783705159489 -0.6714745398204185 0.4025296526071597
Ar -0.1716491502122445 -0.9888908773016161 -0.4875659208910429
Ar -0.6991592946121599 -1.44386328389376 0.3790177615161887
Ar 0.3809381887694206 -1.185323017804353 0.4869268281796356
Ar 0.4955050481051817 -0.3795189935840553 -1.151907037876291
Ar 0.9410739757243557 -1.177165971526365 -0.4932984595014342
Ar 1.461367294421765 -0.1779025631254946 -0.6132447242486576
13
algorithm=ase_ga size=13 seed=0 index=33 energy=-41.01720045360526 step=34
Ar 1.065009550923677 -1.163452754046451 -0.3186862706704007
Ar 1.638925715192099 0.9703267348580407 -0.5694751550027153
Ar 1.472924119637007 -0.1289568643011439 -0.5136166421941536
Ar 1.373205562719062 -0.50335114769772 0.5401560367507953
Ar 1.091418176743546 0.5583135657215557 0.3077789665200766
Ar 0.4335163140740246 -1.11928880485704 0.6190621593853406
Ar 0.4501779287522004 -0.05586736459339949 1.005036661273803
Ar 0.5976162454660358 -0.5080980115969091 -1.114851882317496
Ar -0.06270940438896204 -1.138472108508508 -0.3981434878741627
Ar 0.6064482122653353 0.5782153889414426 -0.7209414018958895
Ar -0.4519530597700521 -0.437282185735808 0.439907107409732
Ar 0.4887136619247073 -0.2704296415892225 -0.06555274431675803
Ar -0.03210833979786774 0.6263247749744332 0.2409512690774651
13
algorithm=ase_ga size=13 seed=0 index=34 energy=-39.11500893196089 step=35
Ar 0.4019673424581544 -0.688734481391082 -0.9200313551471876
Ar -0.0311867591732144 -1.198364336025916 -0.03345231803231064
Ar 1.382192604318591 -0.249366311594525 -0.6381046260366504
Ar 0.6574346020154783 -1.042543689779956 0.8477636021250889
Ar 1.561272008536564 -0.4356756190486535 0.4610961795678654
Ar 1.067703430036831 -1.20912064600116 -0.1806078903801345
Ar 1.239565646588648 0.5906779218541262 0.07615909726107609
Ar 1.483839790842349 0.7989160439229019 -0.9952258649704179
Ar 0.4653977029316037 0.4145518854201751 -0.751517592222976