38
algorithm=ase_ga size=38 seed=1 index=0 energy=-117.5804838389457 step=1
Ar 0.04104933410356711 -1.052295281791695 -0.2030601044753038
Ar 1.802810651732474 -1.813229616058871 -1.25888530955278
Ar 0.9472877109243847 0.9061583890625488 -1.886222801559954
Ar 0.894830054140911 1.477552488195797 -0.9346149707941214
Ar -0.9361717219465597 -1.899123862068098 -1.599230718083338
Ar 1.571947720766739 1.848672637567603 -1.747672565049346
Ar 0.9722612825928845 -1.516968511943373 -0.6076729268396748
Ar 1.854271296326821 0.9659448300601118 -1.131450819345403
Ar -0.2267881024645063 -1.041260208559926 -1.925308519733791
Ar -0.8359769638370512 0.5319796632608043 -1.993957206234831
Ar 0.09837219509475821 0.1727076416454293 -1.582541887838649
Ar -0.7647101864097846 -2.964422989864198 2.53010157756465
Ar 3.231157192445762 -2.954229435868598 2.621027799885512
Ar 0.0134664245563522 1.130269053494449 -0.4121360503270753
Ar 0.851042715600611 -1.501970840428203 -1.75642653156105
Ar -0.05715013959018606 1.236104643850305 -1.500464965027974
Ar -1.565928100944452 2.131447936694962 2.866967927970343
Ar 1.553241176380601 -0.7177496488675514 -1.197650901284208
Ar -0.559952975104969 -0.5468851774905171 -1.025545826571082
Ar -1.003591159092331 -1.399332694369277 -0.5688235574986293
Ar -0.3163208808154804 0.5547044574535691 0.4489209083139069
Ar -2.613701319067996 2.4732111516707 2.645709207731229
Ar 0.4887956021284279 -0.7015308124032835 -1.137346893823601
Ar -1.377015291335097 -0.9042575696736166 -1.622032757793664
Ar -1.914678531974739 3.136967005182628 3.216189739665656
Ar 0.9816967994887721 0.3346572529538092 -0.9443850682556324
Ar -1.578954854287121 -0.3792451681912983 -0.6668714843782082
Ar -2.417588926066752 1.406160488448204 2.924269921420777
Ar 0.2939492528352163 -0.3416323113735145 0.5877313588475982
Ar 1.042883314125704 -0.4837533199439235 -0.211922892484135
Ar -0.01865272228323519 -1.690008282241044 -1.062481212431279
Ar -0.7748435106602338 -0.3956596430441505 0.07422533757320485
Ar -0.7633113027068978 0.5131716370636221 -0.8998548763949399
Ar 0.8194053719311667 0.5868584942788921 0.1390510849528041
Ar 0.0935240735924229 0.03674432512200193 -0.4299735714292939
Ar 2.248178946631501 0.9072859582922224 3.092158921786887
Ar 1.652856769986287 -2.027385828462637 -2.34133649715876
Ar -2.318772467917308 2.210032533904044 3.698012329027576
38
algorithm=ase_ga size=38 seed=1 index=1 energy=-116.4135129674384 step=2
Ar 0.1094887948836778 0.9203193788592438 -2.212911209597622
Ar -1.06193513531753 0.7531228609818869 1.498254027343229
Ar -0.659589315053377 2.094809261133706 1.157939879842527
Ar -1.156236880910788 1.027559272029198 -0.2976844761633987
Ar -1.501546176669665 1.723899125477208 1.762119704149598
Ar -0.9829830894648528 -1.827361324675092 1.059266587952542
Ar 0.4035647062557517 -0.6248336051053494 1.250036661503234
Ar -0.5353166119128119 -3.077508395256335 -2.435968824902663
Ar -0.9768382664425859 2.055994560982445 0.07598398281567505
Ar -0.2526888925727582 0.4219369178348292 -0.08906860153796117
Ar 1.00206966656249 1.772250709388218 -0.01261223049874581
Ar -0.06214086987541724 1.509768682739024 -0.2647113224421828
Ar 1.481572958519045 0.7422610912110579 0.377959661095812
Ar 2.884181630376796 -2.611549505088763 -2.490895252850502
Ar 0.6750025747525364 1.657431982875561 -1.082444357063874
Ar -0.7895533138013401 1.792792654689205 -1.025784037665278
Ar 0.8555605997724558 0.4104517122785536 1.372080297583636
Ar 0.8064082093079844 -1.032035650203801 0.234679022045348
Ar 0.0498093938208999 -1.57658610579006 0.7756827805746593
Ar -1.6468117855328 -3.127940161364033 -2.287794236967478
Ar -0.03345227365007136 1.221071733528092 1.564552055411197
Ar -0.1885950128785617 0.2613090070908082 1.037241293490496
Ar -1.221581371021973 -2.555621970269504 -3.154715159295082
Ar 0.4577221719343461 1.060248408822721 0.5915227426942312
Ar -0.288031687082259 -0.6024258810558961 0.3722649293000351
Ar -0.5842882746748594 1.174168380125318 0.6150115134426211
Ar 1.091362047180661 -1.475672773495513 1.224507542027676
Ar 0.6430487093966779 0.01642190098799329 0.3590911691372481
Ar 3.14753293746044 -2.091298816540201 -1.531777762645596
Ar -0.9559470064658098 -2.189282052986487 2.118294495160701
Ar -1.634639052292793 1.357989938136782 0.7037475840320341
Ar -0.05630325343474183 -2.358169414368283 1.510953731687473
Ar -1.160199066552115 0.2381027517740297 0.5099921583527872
Ar 0.7262057794944812 0.7532020770843831 -0.4493534429795955
Ar -0.3384709903869987 -1.274795573921083 1.768860495830101
Ar -1.100062451149064 -2.163925071786504 -2.109857364335578
Ar 1.451506910107142 -0.4297298711936618 0.9357057777364061
Ar 1.688046977545027 1.226252706579952 -0.6717305720821242
38
algorithm=ase_ga size=38 seed=1 index=2 energy=-125.7383749260278 step=3
Ar 0.4224990730330391 0.3464301144552701 -1.52334759086475
Ar 0.7050347252291869 -1.044157874384339 2.212538135376886
Ar -1.001264432660737 -0.6335040622266779 -0.2267707497781363
Ar -0.2028279113469675 -0.5779488304751392 1.794453631890105
Ar -0.9568706818810195 -1.343526589876611 1.457696811641533
Ar -0.4307294019519019 -0.009626823459352722 -0.9342658769113166
Ar -1.843299718784049 -1.41803473200593 -0.1688201297608306
Ar -2.206904493997553 -0.03898191622918636 1.048978105997896
Ar -1.573221987391102 -0.8430583950207675 0.7044592280707294
Ar 1.184445741835315 0.8583725600918185 -0.7844132178412058
Ar 0.6752537219470864 2.278058964982151 0.53996871331121
Ar -1.265747798180263 0.1611636334334666 0.4842701705001805
Ar -0.8795968058809122 -1.614299395879047 0.3658852727671199
Ar -0.3870842798116212 2.115241364559762 0.7502240596791254
Ar -0.2176076243871263 0.2138558901426649 0.1636384044132314
Ar -0.1041217221035665 -0.631192010550813 2.891088760279159
Ar -0.7431309389444137 1.083499078780284 0.6346636692563378
Ar 0.884984203586921 2.4628189859332 -1.344745237519112
Ar 0.3165766661051147 1.217982235678814 0.4105939213985298
Ar -1.191547400764229 -0.2034034620615151 1.512750477101534
Ar -0.280207226984607 -1.5712646274808 2.300747676968641
Ar -1.006195356294123 0.7450449339750022 -0.4079023198320693
Ar 0.6112380396883382 -0.09582773366968841 -0.5142859637932367
Ar -2.070383497729551 -0.2993334788512922 -0.1031143638974281
Ar -0.4958996387844246 -0.6436920827087541 0.7475758006916943
Ar -2.765785714422366 -1.606595735719311 -1.803157928499081
Ar 0.5304500221621722 1.421103989633874 -1.489127245052168
Ar -0.5556917814687573 1.103723868035697 -1.382544982861034
Ar -1.106018757985275 -0.8261279999554842 2.424053870758307
Ar -0.1988465340969324 2.178102199129894 -1.192612604031942
Ar -2.029146169817012 -1.921068954348613 -2.590099981432677
Ar -0.4823576346576906 1.698220663613748 -0.2571043580151669
Ar 0.6070195224161804 1.835837034208275 -0.4816169708834401
Ar -1.823998829407082 -1.858246868406946 0.9561537088768626
Ar 0.1222451348030314 0.8788003440051405 -0.6018379978800872
Ar -1.976107334716038 -0.9715205091177538 1.708795324748114
Ar -2.647637162773045 -0.9970252222402118 -2.74016659590955
Ar 0.4359916183651501 -1.570493911658323 3.159888963996719
38
algorithm=ase_ga size=38 seed=1 index=3 energy=-99.84961544561197 step=4
Ar -0.5935513756746847 -2.571392337369043 -2.524204002973574
Ar 1.397511262172985 0.5390629935878318 -0.08563405126412021
Ar 0.9168598145388643 1.474184076687138 -0.5046153090172314
Ar -1.216624660944752 -1.50658567040345 2.723775182600563
Ar 0.6567923454564781 1.060679237336165 0.5192723621645569
Ar -2.354874427658181 0.6425631416766384 -1.242913043170695
Ar -0.2026377757680932 1.60127626916184 0.1160431798593271
Ar 0.5454748383849477 -0.07830706297450278 0.247800395892853
Ar 0.5102436637260137 0.9722201468191481 -1.42103545389518
Ar -0.8089895853134809 1.30359656407695 -1.971753842943517
Ar -0.6610091953012174 -2.278285714132173 1.166153885429175
Ar -1.562006441828718 -0.01228040720688565 -0.7306841840877207
Ar -1.251582179365182 1.713441715904571 -0.2238693870458646
Ar -1.909002517929745 1.423617781718571 -1.898091210472722
Ar 0.1737503365664616 0.6994092196531683 -0.413277078417767
Ar 1.573360020623178 0.8038542337826589 -1.135678877534455
Ar 0.8451804012013737 -0.0005480230937338435 -0.8851110427207494
Ar -0.06176807725642004 -1.583474547581459 -2.483921850104753
Ar -0.9163482353836396 -1.31151360660243 1.671398011572336
Ar -2.194812686650064 1.702283710207163 -0.8521996534187577
Ar 0.1577402904963657 -1.596935938424451 1.520954027269246
Ar -2.254928574261205 -1.522534409374211 2.321584535496984
Ar -1.179499623711831 -1.623346436461917 -2.386749220292363
Ar -3.124206541618106 2.511083944457621 3.209338734528286
Ar -1.319842296987593 2.23514997723323 -2.336773136540566
Ar -0.8767828559742661 0.6882676266218013 -0.109196380762558
Ar 1.284604581853339 0.2839151436426115 1.003331374403265
Ar -0.35872339506371 1.495859368186313 -0.9540117658617017
Ar -1.248045469146853 2.078899668989379 -1.252811372548112
Ar -1.986975481556621 0.8556471884990442 -0.194100725832533
Ar -1.321099366594622 1.000198512461699 -1.066739107836431
Ar -2.213703561613047 2.453431283531752 -1.670457835833501
Ar 1.824226523689027 3.869206427965214 0.9868833029259367
Ar -1.506070820822768 -2.229872521645091 1.8996466442167
Ar -0.4524322105135287 -2.167577627403953 2.26015441505529
Ar -0.2948481142232655 2.257041561356996 -1.774255570094615
Ar -0.529751358284123 -2.00621602910521 -1.555644179582941
Ar 3.655066943559178 1.927787327583804 3.224831004330043
38
algorithm=ase_ga size=38 seed=1 index=4 energy=-97.54885002318493 step=5
Ar -1.468992098341273 -0.9364305820956966 1.707796897076509
Ar -0.6541523684913898 -0.5048780433156869 1.083920732464982
Ar -0.4306643966805457 2.251463868502525 0.4555594792619901
Ar 1.374201439516738 0.8123644663556076 -2.844527590987809
Ar -0.5596537357534849 1.757242217218451 -0.5352230372580867
Ar -1.705503005343 -0.1127538851958662 0.9919681622349279
Ar -1.152923558738574 2.029470181626407 -1.436944232096859
Ar 0.438293394810206 1.799779882627231 1.012151440710179
Ar 0.473037353623505 1.990317688467902 -0.140584020727285
Ar -1.594993651546417 -1.772344501642014 -1.843341482301895
Ar -0.6996357046094398 -1.883904344428059 -2.496252856098981
Ar -2.47195373710652 -2.275773824141232 -2.33446488808184
Ar 0.1377932932101334 0.6805547229628068 1.247458736648777
Ar -0.8512733299605049 0.5271341782702835 0.7564912217836434
Ar -1.553434878164295 -1.13879258707473 0.6064897687292179
Ar 2.567866104785675 -1.678318124220386 -1.556257040502218
Ar -0.7479472821695143 0.6413546992535055 -0.3586315600026712
Ar -2.573611505957212 -1.844299606770207 -1.310566829819962
Ar -0.7381665707029592 -1.6133579133253 1.185595975375012
Ar -1.757941699189224 0.5322271604277062 0.08786898229999426
Ar -0.1133605334947768 1.190125287394459 0.3103713888289841
Ar -1.200280784517383 1.463565950495445 0.3067446514481618
Ar 2.848472971900593 -2.706479438103143 -1.203639782845944
Ar 2.492520108982829 0.8614069790085966 -2.934070264174705
Ar -1.050523171084917 -0.3245597208367393 0.06804615794140145
Ar -0.6490115104616453 1.037045870491367 -1.376800018945304
Ar -0.6199594083786958 1.498539672070144 1.255176422008519
Ar -1.949587948697354 -2.761255048738946 -1.465610832570756
Ar -1.714847287632978 -1.732858330042005 -2.952232215699346
Ar 1.684872279952084 -1.550220105108309 3.522345433301462
Ar 2.474545809690462 -2.554981455684537 -2.251048203607262
Ar 2.456940927659067 -1.367565633556275 2.728535246306897
Ar -1.558193833728892 1.280783303614664 -0.7226111740567471
Ar 1.442714407448619 -1.7576662888284 2.445874721411796
Ar -1.451311237260948 -2.706520942890951 -2.461356566995057
Ar 0.2531688630863258 1.030380782298315 -0.7143630296682695
Ar -1.614679087329816 -1.963293166527255 -0.7400377660632661
Ar -1.670639668159704 1.097769799038621 -1.810088394610998
38
algorithm=ase_ga size=38 seed=1 index=5 energy=-107.9839237709198 step=6
Ar -1.434499969562912 -1.435793976531088 1.33778029417118
Ar -1.953899478141002 -0.6264427509647523 -2.801260548188211
Ar -1.349801197974638 -2.377142176481502 -0.218640755918499
Ar 1.771885344814203 0.2303001938534866 -1.492187216438793
Ar -0.7711163650784342 -2.047360769835598 0.6772449636755804
Ar 0.09308272290956589 1.774147119622538 -0.01527276961903989
Ar 0.7433117968040873 0.08947701318478302 0.0191660119612186
Ar -1.912734810166937 -1.577578499289411 -2.20518120503763
Ar -0.1034554353629503 1.800429130114907 1.081980665147564
Ar -1.546164881543566 -1.374562533982723 0.2256055042549406
Ar 1.773488414149202 0.44969465076739 -0.393073505501589
Ar 0.2933487609556996 0.8658163551856694 0.63144091479794
Ar 0.9955939078534203 1.198338020953548 -0.1764386991521711
Ar -2.22991309617283 1.344720954172991 2.702916897299816
Ar 0.5663789680190807 -1.158772285116165 -1.376970963561798
Ar 0.0119981024108953 1.495192242252396 -2.128064214584355
Ar 1.007610391405749 -2.453537843199566 3.033434115676963
Ar -2.454912332754231 -1.37077118386101 0.8776029766065482
Ar 1.207712331822481 -0.4877230238754622 -0.7744131806087501
Ar -1.856948541550563 -2.309632084909701 0.7780003615639407
Ar 0.4166204460267424 1.49778557835275 -1.089771343082984
Ar 0.972188412426393 1.719564987071582 0.7799962675418637
Ar -0.2573941423601783 -0.5154750693360807 -1.826521728686475
Ar 1.656255466994708 -0.8643532075018483 -1.686796377997655
Ar -0.9663853114070496 -1.050169572824571 -2.48251860319417
Ar 0.8519083092547935 -1.353172126277789 3.191065247135349
Ar 0.1243677126295409 -0.2909921718239751 -0.8231023914888814
Ar -0.04735085510916321 0.7428429057732442 -0.4211773212290444
Ar 2.291253381904022 -0.4641486782900164 -0.7806191779824814
Ar 0.863607647478148 0.5117427940548377 -0.9729462876654427
Ar 0.7842895649680768 -0.1702589773608064 -1.800583066893341
Ar 1.698631080678095 -0.4348385664082074 0.2309102366064665
Ar -1.562955717011128 -1.566696611797566 -3.274669215073316
Ar 1.423488093110551 0.6450343843719226 0.6697162894451798
Ar 0.955875117247433 0.9272227164552033 -1.958549484245723
Ar -2.523225583660621 2.406720216068114 2.917664822957446
Ar -0.5782383315860329 -1.545700081815526 -0.3197316768808434
Ar -0.05101171846919074 0.5523506493902491 -1.544289787841654
38
algorithm=ase_ga size=38 seed=1 index=6 energy=-95.42367581381367 step=7
Ar -3.15059102070349 2.772527533691961 -0.7382443596852278
Ar -0.1214274944586061 1.650667118400338 0.9061762984107279
Ar 2.930577861455817 2.249810469044085 2.089607470549518
Ar 1.103273523433556 -0.8464443178459953 -1.005608977916964
Ar 1.565254158150096 2.565143239717925 -2.139322699793456
Ar -1.189697235126589 -1.906351921513681 -2.196606453544907
Ar 0.3230667253593255 2.648152243657705 0.6707811465173029
Ar -0.8019494725653137 -0.2127346323543417 -0.1710061494198041
Ar -0.200393100792312 -0.4021257216111084 0.7541801244730275
Ar 3.209216907398916 1.233523672573648 2.476455453231338
Ar -0.7213062392792464 -1.15198030686009 -0.7078243311203553
Ar -0.6771083226913238 -2.106439015389673 -1.228446098460218
Ar -1.100205567144167 2.258874447477855 2.32959650532863
Ar -0.1716452940823694 -1.953433522537275 -0.2019367712910258
Ar 0.8977019631857859 -1.575423870092047 -0.1767564970658879
Ar -1.678491390451885 -0.9158826454639456 -0.2415687864014701
Ar 0.5898709001581791 2.1615960067327 -2.525302307922029
Ar 0.6076993392140989 2.125184754626007 1.626476284369285
Ar -0.2684533320304064 1.579892381164591 2.020613973807579
Ar -1.375785678481735 -0.4019419003614688 0.7508321715546327
Ar -1.312969402929692 -0.3726002699785558 -1.17243979657823
Ar 0.222639994897783 -1.445703615952661 0.7033047331020768
Ar 0.1472577371155501 -0.7958900843445784 -0.2281801369037227
Ar -1.301776885912842 -1.982695218618289 -0.3063073732104988
Ar -2.765773863608706 1.890826415537472 -1.316835145939869
Ar -1.151263751356198 1.731571747868923 1.348448524848229
Ar -1.600136206492663 -1.45248088861916 -1.261378885184323
Ar -0.4203487323158932 2.562522696527102 1.498289303079869
Ar -3.066116786580712 2.828552823398998 -1.856043356793559
Ar 0.2347339675164553 -1.500304829705563 -1.104425101695403
Ar 0.764540780261778 2.247465234515587 -1.421853717129934
Ar 0.9231346186014607 -0.6163484317318215 0.5117677334918108
Ar 0.5415572370108125 2.169736357106159 -0.3146247831611314
Ar 3.096442137637934 2.093384730382911 3.188842188798747
Ar -0.7957955434729455 -1.240590646241575 0.360119461961901
Ar 0.4897703354764233 -0.9014061991908533 -1.98410790740468
Ar -0.6046628322855555 -1.07354051769409 -1.767128716679703
Ar -2.965523010766794 -1.822076572501567 3.104571910677739
38
algorithm=ase_ga size=38 seed=1 index=7 energy=-114.1782686267353 step=8
Ar -1.748276299691018 1.752646915054989 0.8513035757504331
Ar -0.9043167204682231 -1.36104211134473 -1.825827749767344
Ar -0.8716173632666228 -2.285710454394065 -1.127052934769497
Ar -0.4223110670387404 2.754383510399808 1.59457584978364
Ar 0.6626185795664907 -1.757190158929435 0.3138404225505438
Ar -1.505752914509699 2.530907357616188 1.646942811172879
Ar -2.448682317976314 2.832888512331126 -2.60727376708128
Ar 0.566114992326357 -2.807898734394528 -0.05412007379504739
Ar -0.4191770504918024 -0.2018586952280696 -0.4876489099110694
Ar -1.584696314865307 2.13651488246543 -0.181179979764991
Ar -0.8046938273703385 2.064094891261079 2.394993231445211
Ar 2.033973380870856 -1.353001741157071 1.575017197714795
Ar 0.01940500435755254 1.089982281631489 0.9815896086681879
Ar 2.172504939406662 -1.514538447125109 0.4785000199836704
Ar 1.406810509092874 -1.188698742184625 -0.2738131028675879
Ar 1.260636386707915 -0.9983371018761851 0.8319770082597974
Ar -1.002892314325266 2.568360571403183 0.6613658020116876
Ar 1.394247125917089 -2.100241675892964 1.058331591687739
Ar -0.1638468577154376 -2.028764224989711 -0.3278364754680652
Ar 0.9679825451808807 -1.074954579138344 -1.350960506833919
Ar -0.08081924424368488 -0.6377224898960383 -1.451537479240465
Ar -0.5454480408184336 -3.047191046798372 -0.2945287982256746
Ar 0.8646961470950097 -2.005386506739513 -0.7618731033069386
Ar -1.676733608688663 1.477633695196298 1.956795693993438
Ar -1.528138442672913 3.157067677395179 -3.161849146876313
Ar 0.1507477471362665 -2.773666996053048 -1.106205834571515
Ar -0.7909247930672516 1.7253150217812 1.361018334488663
Ar 2.242470070845612 -2.018284304208871 -2.252936283836982
Ar -0.7679652609346287 1.533980490769691 0.2881659547182326
Ar 0.1111438567828918 2.677579195645719 2.567217996763071
Ar 0.03675931847348581 -1.709857677972245 -1.381581827495092
Ar 0.03246367219115286 2.177797752688832 0.7616262370397086
Ar -0.7580342461729466 -1.225857099423968 -0.7470053484901966
Ar 1.580896842106351 -2.30322814289103 -0.009862741595930981
Ar -2.525792776535742 2.096830973279347 1.569116208687636
Ar -1.154884797141112 -0.3769783745189688 -1.33486484299137
Ar 0.3103399944049055 -1.054151231675515 -0.4778933526457885
Ar 0.1828361718082128 1.839980314954231 1.830897607844549
38
algorithm=ase_ga size=38 seed=1 index=8 energy=-104.5150660199343 step=9
Ar -1.028648042421196 -2.52960318088049 0.533526035598874
Ar -1.272588642982387 1.368650412450232 0.6905161292864622
Ar 0.8524216770794586 -1.497661428908949 -0.02722351325558192
Ar -1.90169356526171 -1.870578098668629 0.331157700078207
Ar 2.720627560075357 0.2784864410042469 -3.104419090961268
Ar 0.04953718935337455 2.622597211365123 -0.5351757159711574
Ar -0.2751063178778505 1.601386941266166 -0.7833769768550443
Ar -2.476539791806677 1.090533454275953 -2.085373208450975
Ar -0.06689899771269138 -1.986516318482971 0.3760967602153978
Ar 0.498961834808907 0.8459304834569334 -0.4540025541766595
Ar -1.917665763811412 -1.583356312412163 -0.7478065300652295
Ar 2.509549071171616 -1.647950928993959 2.860039503844504
Ar 1.253705307661991 0.243491493253757 0.1228364729357253
Ar 1.337934115635455 1.35571269236316 0.08025808107757199
Ar 0.034378833739547 -1.774287637531066 -0.7318577854650025
Ar -2.124213050578024 1.662784808145386 1.328749407285833
Ar 0.6353827938812612 -2.589632268086071 -0.2319886631608206
Ar -1.320057767865553 1.438609270425194 -0.4193128208677219
Ar -0.2307985056330563 1.585446468111761 1.039786500516538
Ar 0.4912196230852603 0.8340244989734671 0.6594942410407714
Ar 0.9066028716785575 1.772475334553865 1.063700660259043
Ar 1.094227308552611 -1.957556699531815 -1.025555458235174
Ar -1.418783669519266 0.8209020779163622 1.626013347097296
Ar -0.947152018303867 -1.704593010101846 -0.2263229503604157
Ar -1.551345312837948 2.532317564992483 -0.3238452468229086
Ar -2.175804200386494 1.783802617275811 0.2141790844053162
Ar -1.084783882827829 1.887397461037063 1.667550043534009
Ar -0.4605428299082011 -2.707392049618749 -0.4020021340452294
Ar 0.347140823565218 1.789784124500866 0.1246282704883333
Ar 2.060902679810346 -2.652752609377369 3.081701017071451
Ar -0.6685104167335069 2.113979487815509 0.1610870675937924
Ar -1.56974334712173 -2.603994721487234 -0.4530166862432155
Ar 1.529116720394502 0.8396231759738492 1.045623141482309
Ar -2.262616156495221 -1.87927008760689 -1.76328315663768
Ar -0.441774377429122 0.9937568592546236 0.1109182148445183
Ar -1.500722367578006 2.448094765633254 0.8029809331741227
Ar 0.8895487087511068 -0.07779838906876928 1.134868181814467
Ar 0.830729203768551 1.835018301554425 -0.8472388267041422
38
algorithm=ase_ga size=38 seed=1 index=9 energy=-95.06686269901265 step=10
Ar 0.06100417921786127 0.1432966542898073 1.322492258288234
Ar -1.269645069320213 1.33888878006086 0.8822845035578383
Ar -0.5393764991626779 2.745353689530945 -2.63154420954104
Ar -1.311212160011814 -2.455894402893732 -1.780138323799899
Ar 3.279206932133936 2.755099998873449 -0.2953571990574983
Ar 2.653114911389023 -1.215252022320802 0.8410330963856405
Ar -0.4603417011077233 -3.029738644251577 2.63329676765267
Ar -1.306409876863339 2.135875345050953 -3.178636654827517
Ar 0.3140090542267721 0.7696067772592516 2.252868169555948
Ar -1.5077270719129 2.413604173688832 0.8326861034186046
Ar 1.198162614878561 2.381854926899339 2.002115328535761
Ar 1.108009136877576 0.204076621104346 1.73414520212371
Ar -0.9357864895487057 2.015603868925018 1.715592308416481
Ar -0.6501481052813403 0.2762304268059693 2.224024952878137
Ar -1.414831661343594 0.9992723920846307 1.950686641874491
Ar -1.631189067268103 2.892799766935143 -2.415682559802131
Ar 1.265484651730621 1.280033252784226 2.10972851755146
Ar -2.60755557203025 2.557558401802162 0.9945086314625433
Ar -2.135421227210036 0.7258919738644203 1.171594493430484
Ar -2.51789515955443 -1.663547331848537 -2.89814076115673
Ar -0.4146016257747189 1.08996296324378 1.49555546940323
Ar 0.2773068410889276 -0.343771607243215 2.282503991380775
Ar 2.109590970538739 -0.8242444387240822 1.753816246631387
Ar -2.042989500723094 1.79526667561383 1.575132477023774
Ar -0.5769504902540414 1.358757412425075 2.563121302183013
Ar -0.9870600687548241 -2.764288878057879 1.678363442726894
Ar -2.265072311795958 1.614739510030198 0.5026606384456711
Ar -1.58256803646463 1.876748471237905 2.598776291849388
Ar -2.181312537843482 2.579278391240539 -0.04381013303558531
Ar -2.11904606782709 -1.683272129797122 -1.851631160007804
Ar 0.2218472170421487 1.843293556484052 1.957162110027994
Ar 0.6419792749986063 1.096139328211102 1.221755656258693
Ar -0.6220864349002738 -0.662114437861496 1.650619593569184
Ar -1.075973343323016 0.2673520484058522 1.186759143304212
Ar -1.117108755743106 1.951232885455771 -2.087150117760638
Ar -2.195141629681266 -2.635402187587294 -2.444290190717984
Ar -1.429472215074806 -1.86048789332219 -2.721498150697418
Ar 2.902287098956498 0.3121076132941391 -1.455654207067294
38
algorithm=ase_ga size=38 seed=1 index=10 energy=-137.8044957556728 step=11
Ar -0.3473160342229097 0.4512072277132402 -1.112618895970602
Ar -0.5552048046862391 -1.354252082987098 -0.8804234925400606
Ar -2.068754652534567 1.906117927611467 2.94911081638431
Ar 0.08222951931412727 -0.5064893440548552 -0.7963936465592771
Ar 1.68624697350152 -1.46647127124026 -0.7643762124037715
Ar -0.5438650747391203 -0.4488978358612477 -1.686502903651266
Ar 0.5741003257538474 -1.403403310972112 -0.5077127849947238
Ar -0.7645427319277243 -2.962376484754696 2.528120845490371
Ar 3.231157192445762 -2.954229435868598 2.621027799885512
Ar 1.350583684376581 -0.9756569624814115 -1.761893484767737
Ar 1.183932853010367 -0.5082433996701531 -0.8060686225043783
Ar -1.00014917118114 -0.3265425389613226 -0.6372002739631051
Ar 0.5812214654912119 -0.06308512881471291 -1.644835004371569
Ar -0.08981006644177708 -0.02734347225944919 0.9567120092477732
Ar 0.65626347338934 -0.407374342379188 0.1562995751569553
Ar 0.2860495043898226 -1.165480061176992 -1.611064658158603
Ar -0.3715410790331855 -0.8584735426613732 0.1445565593807935
Ar 2.1822088104001 0.9103046437078504 3.03902340727443
Ar 0.9601390568702757 -1.992253269156197 -1.395081403832274
Ar -0.1744690382549215 0.5454274857858359 -2.174419339700111
Ar -0.9240732142285653 0.5706496964717268 1.437341289318675
Ar -0.8049034430910128 1.69439853217194 1.268946613289951
Ar -1.07897858098026 0.7880635333882985 -0.3672572533570895
Ar -1.742417695760019 1.28496958167877 1.711392279374355
Ar -0.874522031477127 1.808332357338199 -0.01433541210068243
Ar -0.2292890872293493 0.1908003874025004 -0.07675185658539561
Ar 1.148804201190198 1.293894062194121 -0.4614461585570256
Ar 0.02435011640146008 1.236241815914831 -0.385149398362731
Ar 1.544802133514676 0.2797309726277609 -0.09248055034768339
Ar 0.4841414998650956 1.100162388907661 -1.423429889613107
Ar -0.6787247664283463 1.489946886165588 -1.168618120907389
Ar 0.1385227381241943 0.9607624218881375 1.451987725149398
Ar 0.6162363309041725 0.6987940576052966 0.4175285377324215
Ar -0.4483952609232599 0.984025866258924 0.553098080792235
Ar -1.522413784063626 1.09090271912937 0.6199282309553211
Ar -1.125882434414385 0.03615314756168155 0.4749143865281534
Ar 0.6292530776431782 0.3837255917448243 -0.6377244281228018
Ar 1.490286695236275 0.4942547591282712 -1.252258573081403
38
algorithm=ase_ga size=38 seed=1 index=11 energy=-149.1349760820005 step=12
Ar -0.09235418746808509 0.5769460799758888 -1.255511711289333
Ar -0.2144458202344317 1.664049838741812 0.6216131487596683
Ar -1.246147064739082 1.54354973186795 0.9929977636486185
Ar 0.7020743354691033 -0.06661129524808497 1.187040696089501
Ar -1.107176954093396 1.699376020754357 -0.1047145181233624
Ar -0.313292975021629 0.09637338772741814 -0.3016849694567313
Ar 0.7880571720496709 1.506946031007621 0.04974354502167608
Ar -0.1905568814723764 1.187897188645459 -0.3477373520660024
Ar 1.304128408362434 0.5573812624577441 0.393677758622054
Ar 1.755435144669593 -2.004304484419031 -0.8747661361657214
Ar 0.5821899447421663 1.464507703459585 -1.070989804632219
Ar -0.6614739078926282 1.52272932573532 -1.267266919677157
Ar 0.5215734394024083 -1.325674989150362 -0.3607525921691339
Ar -0.3843250860615525 0.8685633482591444 1.383239272104271
Ar -0.3597167786376165 -0.1391696594148628 0.8691196596943879
Ar 0.2351462740142906 0.6672943197125878 0.5024478230743082
Ar -0.8724240095440124 0.7108564138518906 0.4024017048477954
Ar 0.8015496230469513 -1.211636732334406 0.7490184401327553
Ar 0.5596734221081409 -0.3440907417555271 0.148677341140631
Ar 1.565185079914398 -1.237112841758826 -0.09592112410846598
Ar 0.6655900076039915 0.5482545213443952 -0.4843829241871295
Ar 1.590432485350682 -0.4497175792566285 0.6451736152465316
Ar 1.613699499704897 1.032042848891624 -0.5794084507651772
Ar 0.4419767147265939 -0.3797411449387486 -0.9501485115812566
Ar -1.002034106719244 -1.296638520125251 -1.494149099386006
Ar 1.460161864103288 -0.1905348411436062 -0.4571212582543291
Ar -0.3995181832391159 -0.392115598691696 -1.641803972478712
Ar -1.071533073004911 0.5169553121813419 -1.731580896642977
Ar -0.4577018157303716 -0.9208900974057017 -0.6266280976185133
Ar -1.260967869783065 1.980497082120575 2.003164510359693
Ar -1.262756361557123 -0.2939178548623592 -0.9735731179834836
Ar -1.147815475843293 -0.4077437326989959 0.1361378695597982
Ar -1.381965000848876 0.8634103194075677 1.857529671611767
Ar 0.1697988321932118 -1.338458557635753 -1.428751317705539
Ar -0.2450442922075045 -1.099917228227321 0.4099352312643821
Ar -1.135275302564321 0.7318479456409174 -0.6556636524850499
Ar 1.254041356959034 -1.059715920245699 -1.158166554062965
Ar -1.884367734582137 1.386549919314397 2.715454080420401
38
algorithm=ase_ga size=38 seed=1 index=12 energy=-145.442952570596 step=13
Ar -0.7625893184909693 -0.4541244570705587 -0.4633265023048092
Ar -0.01009753417022609 -0.03131320886024702 1.535641756479834
Ar -1.191742605704372 -1.426940440305801 1.421573111612834
Ar -1.477676975194359 -1.679487516511713 -0.4590528902816553
Ar -1.495414775738755 -0.04087174365213498 0.2657915919223298
Ar -1.059759337858808 -1.06279359446624 0.3839327404692048
Ar -0.4591055726136199 -0.1753300285955768 0.5586968255811037
Ar 0.1979245193704144 0.6994591969816073 0.6364657839982443
Ar -0.7871174820198324 0.2150735264132366 2.292897445401537
Ar -0.5089935048800553 -0.8613237284990448 2.142275183301188
Ar -1.410095767481632 0.3276953633152596 -0.8586091713975569
Ar -2.110657706598837 -0.885142524070464 -0.06145218984897782
Ar -0.1878728400614888 -1.058202466071049 1.10892618581153
Ar -1.651116713778629 -0.7461864185986038 -1.029584351031974
Ar -1.095923489003202 -0.3277985268272489 1.379468765015218
Ar -1.210069796830387 -1.621624817081196 -1.574934184899553
Ar -0.6933492284102969 0.6537046762397688 -0.09353264357100391
Ar -1.866989624543979 -1.782862977778919 0.5829848472820572
Ar -2.000317475039222 -0.7672524480283698 1.006299309402438
Ar -1.663175102141146 -0.7667684547990384 -2.142397624337438
Ar 0.05389252980146773 -1.015534564110218 0.0368697005200611
Ar 1.153890900866859 -0.8240628483317874 -1.43612716744941
Ar 0.2588414113339417 1.11664974964385 -1.562888781601957
Ar 0.2726912898057418 1.075752622441156 -0.460067102302939
Ar 0.6378735133723387 -1.579237362304482 -0.7500747658561933
Ar -0.7241524122527017 -0.6247367211547706 -1.577485312259061
Ar -0.3322028307483061 0.3101577683967712 -1.12801445062877
Ar 3.231157192445762 -2.954229435868598 2.621027799885512
Ar 0.1886990163454272 0.03781386317566598 -0.2252004618933987