38
algorithm=ssw size=38 seed=1 index=0 energy=-162.3412376592731 entry_id=0 visits=3
Ar -0.8281546456742968 0.5437571632997311 -1.763083132191962
Ar -0.9220699665814946 -0.6934348171136795 -0.410163986786822
Ar -0.3062511579533199 -0.04090094980216948 -1.014114118232982
Ar -0.6802859013667328 -0.4027506487720125 0.7087832743384211
Ar -1.400748791463043 0.3803315651048387 -0.8244141992454422
Ar 1.050606997539717 -0.06381777777564682 0.224648884988949
Ar -1.364813919868268 -1.217882530830701 0.4580733469076222
Ar 0.3869225010448957 -0.655232247827271 0.9291953404753046
Ar 1.236777988779324 1.342622008510952 -1.457472442342387
Ar -1.479653310779083 0.1587899059210755 1.196820206694985
Ar -0.7854356615557438 0.9419738345910931 0.9182141790402711
Ar 0.3926659361087237 0.6433951766916295 -1.47454001826717
Ar -0.1110404069913104 1.14838513575306 -2.330199731717318
Ar 0.9540019972266386 1.031642555393753 0.4131039803001624
Ar -0.4339762196903181 1.039946855594032 -0.8709632058472234
Ar 0.6866679005482462 1.574190456681047 -0.5295974204740438
Ar -1.17708297338611 -0.4967821326646721 -1.477875655669126
Ar 0.7890311428662691 -0.309036468967002 -0.8794219493189708
Ar 0.8216788874850374 -1.141725250657123 -0.06390315006904336
Ar -0.6958588020813631 0.3905606611469871 -0.04019337069713579
Ar -1.656628573520583 -0.1755819168368939 0.1635416704201164
Ar -0.001629795705501082 -1.118953408855085 -0.8777588406621247
Ar 0.1125531902690659 0.369372392872691 0.6373625034423173
Ar -0.8921513529084554 1.653524227750817 -1.652342025104361
Ar -1.633927578502424 0.9030219880915001 0.2222798449959043
Ar -1.388347603297741 1.490818501765275 -0.6722668348694706
Ar 0.2323676705981167 1.229935313398338 1.264927957930557
Ar 1.411823794997281 0.6653967094857099 -0.5733090603398574
Ar -0.4100412086696402 2.079621180975201 -0.59054477070263
Ar 0.9244883142969216 0.2974491258593911 1.318128412617053
Ar -1.047822228443279 1.843839297341021 0.3176791891180698
Ar 0.3707028813800946 0.5545372508262316 -0.3888426494314033
Ar 1.415559430185517 0.247045353098245 -1.60014680916597
Ar 0.05575254230121289 -0.4032760797547706 -0.07529804996797258
Ar -0.3228077207494416 0.185625973500842 1.595914757856772
Ar -0.266887886288561 -1.365855854482512 0.247685320643948
Ar 0.1876481233910011 1.744325851486129 -1.469027349366769
Ar -0.1049766361427796 1.334422102322299 0.1722139391116953
38
algorithm=ssw size=38 seed=1 index=1 energy=-165.0557992585236 entry_id=1 visits=2
Ar -0.9790101217203921 -0.2435867537485478 -1.626823748479163
Ar -0.6743589239909449 -0.5820120264207194 0.3875525360262029
Ar -0.3946423621304484 -0.4783389361975843 -0.7336296920717976
Ar -0.06000450860564375 0.2696569687377685 0.9482607776254703
Ar -1.373327381502285 -0.2417878918750225 -0.3795718852634224
Ar 1.262232230171782 0.09312302997949719 -0.2665380544265646
Ar -0.7640029775029809 -0.3641066830012847 1.467547959946898
Ar 1.009890748929425 0.04203203884732698 0.8297803714099756
Ar 0.520527962937409 1.26921460481807 -1.496338128250565
Ar -0.8172054078467077 0.807569399245873 1.476421720686297
Ar -0.2763173841443846 1.366151434166681 0.6004332601531921
Ar -0.2399954026166664 0.5916615946738405 -1.84462373436479
Ar -1.296739737201672 0.7955684688759265 -1.978321298513184
Ar 1.139734565007622 1.11607936981043 -0.6217162750298626
Ar -0.8881233108460896 0.6009156201914549 -0.961138180641449
Ar 0.8093463440440167 2.148673606317106 -0.8350866548030824
Ar -1.020812542141445 -1.304039121258892 -0.3804384132343466
Ar 0.7223882137041834 -0.6936039575630856 -0.8072176195850133
Ar 1.09650843394216 -0.9140383142774415 0.238598991676451
Ar -0.5648075422105069 0.4849759168996213 0.0213664952566762
Ar -1.359387473873819 0.2013735923788133 0.7009012293144546
Ar 0.0659368366746361 -1.285905148945856 -0.077120420387083
Ar 0.5004615026307659 0.7605801688381961 0.1633026700395596
Ar -1.902376808811615 0.2656551568062981 -1.207902259784679
Ar -1.380145101656686 1.30378321851633 0.6809554039303696
Ar -1.727158334726404 0.7501360053102907 -0.2057299741971237
Ar 0.7663293956023811 1.795183034295279 0.2516013142576238
Ar 1.085986554285316 0.2512132330199348 -1.378451057807939
Ar -1.683318417145842 1.368668089523054 -1.127481796922378
Ar 1.52549516730287 0.9608808021124292 0.4262876142782673
Ar -0.9732235523519797 1.515615117495083 -0.3052334687936543
Ar 0.1944249842994831 0.41163696390889 -0.8242598339989995
Ar 0.1637296872300593 -0.3814450088625625 -1.673967447084831
Ar 0.2751770002499127 -0.2414751796216873 0.0548080060425411
Ar 0.6642141061035109 1.09235675777448 1.171004972812804
Ar 0.2347134584183166 -0.8011520620186109 0.9819651472354971
Ar -0.5949084153107723 1.545184383725563 -1.399131457382514
Ar 0.05142547220107675 1.432903010644751 -0.5169730312573553
38
algorithm=ssw size=38 seed=1 index=2 energy=-165.8047247386541 entry_id=2 visits=2
Ar -0.885421295656609 -0.7303637898017755 -1.462978612853573
Ar -0.6388318614628916 -0.604866426816712 0.3620097692201831
Ar -0.2923247283470874 -0.3832780350484667 -0.6301124298035685
Ar -0.1291276676445715 0.3558925307793897 1.055242660679483
Ar -1.361003774423027 -0.4300306524412447 -0.4963339864855363
Ar 1.205586207224921 0.4285361621088389 -0.1929037610723385
Ar -0.9575821991230461 -0.2897489408875885 1.353673570737914
Ar 0.9873198085420377 0.2246444031951184 0.923757209751035
Ar 0.2242414235382239 1.678885899284226 -1.189223026401793
Ar -1.139517262133688 0.7783189244406739 1.058306065987905
Ar -0.3389883040433017 1.501021244128949 0.9076275818371469
Ar 0.06203581362540151 -0.05446242515064027 -1.593045404296916
Ar -0.9246768806686461 0.1153411349515737 -2.169974208770364
Ar 0.9544543443413579 1.456485580464709 -0.4267945048675724
Ar -0.8566026326531225 0.3317779706986533 -1.105936517635516
Ar 0.5705491297068641 2.487451373176361 -0.4633839774714759
Ar -0.7393643302546199 -1.356190648188788 -0.5105412116904285
Ar 0.7758224709550143 -0.3543641386727305 -0.8026144920660681
Ar 1.212505561985133 -0.622079059270506 0.2281700498515786
Ar -0.6712148958026303 0.4647009009403889 0.05452479635512972
Ar -1.590998489430333 2.846952517861978e-06 0.462754415239485
Ar 0.274112724364266 -1.131125725025819 -0.08262024710270756
Ar 0.3852544403158535 0.9551319693660755 0.3299022088589696
Ar -1.805641526181385 -0.05055499171412314 -1.440394791811366
Ar -1.172725155383276 1.429385576388401 0.1646127127851148
Ar -1.654371484243641 0.6551430479971424 -0.475559630889799
Ar 0.6398355513757901 1.988509764509531 0.5562498930669894
Ar 0.9296421395215977 0.6827800601623883 -1.296652229423371
Ar -1.472689482611139 0.9868199272219669 -1.705777236778979
Ar 1.423360472336189 1.19898265378065 0.5751242702779723
Ar -0.8394392506962062 1.369672968146977 -0.8900131216690028
Ar 0.07553860897919565 0.6924775331660336 -0.6780459604028846
Ar 0.1317649712227656 -1.163646093802312 -1.231404607158296
Ar 0.2970488906166919 -0.06055915048311052 0.1442796163409432
Ar 0.6150932053534369 1.174673007157268 1.368411168115258
Ar 0.2830247180300747 -0.6957209875447093 1.00093138696723
Ar -0.3049112707563002 0.958271236161029 -1.788716424364053
Ar -0.1531010331215438 1.721384852791368 -0.1594569546447447
38
algorithm=ssw size=38 seed=1 index=3 energy=-165.8346939308003 entry_id=3 visits=4
Ar -0.9436785835764825 -0.7739724580137564 -1.400936444296168
Ar -1.060391174549245 -0.05227340454567578 0.2890672909988103
Ar -0.4216263376907256 -0.4098814530815761 -0.5179869699763944
Ar -0.4914115147193783 0.8723861923334375 0.6613583630177716
Ar -1.410666640461618 0.03605255014416084 -0.7561438200163325
Ar 1.404263880316373 0.2337588591774615 -0.3908225657545841
Ar -1.523747820823562 0.6867006819924274 0.9760157699120927
Ar 1.067712101392036 0.3887949047298412 0.6079537040265359
Ar -0.6849980744153457 1.693683764698528 -0.3851473301052105
Ar -0.746452470172839 0.6530760284603311 1.745530624964908
Ar -0.1993494725153458 1.555488161054737 1.459911718017458
Ar 0.1753921403910958 -0.6311453063214234 -1.403310476908429
Ar -0.4064598424009958 -0.2287738513567326 -2.300559000489707
Ar 1.024548886134902 1.070798587909739 -1.027650072162434
Ar -0.5041747167423696 0.2270044943306482 -1.347749233649615
Ar 0.4849951780303837 1.957480482515668 -0.5462272573978586
Ar -1.263125794211097 -1.016339805547423 -0.301290976013672
Ar 0.6190113685803917 -0.7061404384915143 -0.299712531585659
Ar 0.5887907624339624 -0.5794457077895538 0.9835204809996648
Ar -0.5537836042676361 0.6355723755927861 -0.3758765382059399
Ar -1.515130485560738 0.9678008083936581 -0.08357953728007489
Ar -0.2960405085678388 -0.9895643715936135 0.3698579920551512
Ar 0.3708859384785291 1.031815151099477 -0.0247440708193944
Ar -1.419693113709559 0.1699787973159443 -1.887205402263791
Ar -1.131240192672167 1.727363071709135 0.6685258229640844
Ar -1.183491105643009 1.05777963345417 -1.176522433478281
Ar 0.7759806471842547 1.400227180810915 0.9282782921249259
Ar 1.184005469741028 -0.199105550346561 -1.363945576345793
Ar -0.5746027961753513 0.9284623610446384 -2.14504177229793
Ar 1.408059210489403 1.301698919077815 -0.004613785005852088
Ar -0.05659123107300398 1.204060888034086 -1.157661158461361
Ar 0.3895212450302886 0.249501936876723 -0.7571792370382968
Ar -0.2335361625589588 -1.434954173850636 -0.7025958606138151
Ar 0.08134979194943204 0.05121567535435326 0.2952771365313202
Ar 0.2771505827858454 0.5026162155237397 1.336180378835412
Ar -0.4909689657122429 -0.2557778793208524 1.183592795818216
Ar 0.4259782253743687 0.4530181284455547 -1.842236013097329
Ar -0.04782786269500455 1.93033905330171 0.4467617314098287
38
algorithm=ssw size=38 seed=1 index=4 energy=-166.6593609947002 entry_id=4 visits=3
Ar -1.802606607970994 0.1485762978195576 -1.055290754967463
Ar -1.207084642789966 0.8527217710470856 0.5016063163865808
Ar -0.9822313977753674 0.07412935778605353 -0.2591807065665894
Ar 0.440668320481856 0.7669468629716893 0.5995326585134549
Ar -1.511455977797953 1.08024083785778 -0.5045977960961253
Ar 0.7888847264292578 -0.5620043934105826 -0.5145565901170029
Ar -0.3183724799453953 1.455893316853696 0.847863281795097
Ar 0.5873004702981826 -0.9877496513744015 0.4766988158220836
Ar 0.4877808190463266 1.594834181759825 -0.1583220067463305
Ar 0.2988290273936662 0.9363277565568034 1.652530072074925
Ar 1.30963402379612 0.6832215595379568 1.234498063445536
Ar -0.9371827984969956 -0.5063009015488247 -1.252922584241115
Ar -1.273271679908342 0.2108384637788217 -2.068323743832719
Ar 0.8512239710873971 0.1353436223061747 -1.393136730743474
Ar -0.8299859809066386 0.6055592835009661 -1.172470741812217
Ar 1.258870308022048 1.213839997017598 -0.959220323103921
Ar -2.028823015200613 0.2390991342284707 0.02164738356973414
Ar -0.4451067695237311 -0.9186761703760705 -0.3169860476398225
Ar -0.3899283734957336 -0.7906761485409599 0.9414511196090896
Ar -0.3441303841047567 0.9144050095915786 -0.2054889024647882
Ar -0.9014251442880719 1.840254494452713 0.01763523511946666
Ar -1.318174730410487 -0.2758813170913889 0.6932780917197742
Ar 0.6737329199935745 0.5345465714103947 -0.388938698943654
Ar -1.620541571778397 1.187035506061149 -1.606354273689342
Ar 0.8246875670423103 1.69794272314207 0.9374228873480234
Ar -0.6972217527419037 1.660757973838124 -1.042752620403232
Ar 1.175288569330885 -0.03533314593422301 0.3821407494011065
Ar 0.1395981941819175 -0.8892635002360793 -1.393557178429341
Ar -0.5763235602055453 1.147667142015268 -2.062598985484517
Ar 1.667315984164327 0.2016079649523738 -0.5975060868592369
Ar 0.1777589018763307 1.011782700216686 -1.218920691519478
Ar -0.07881048183017253 -0.01819684560738156 -0.8336021239704986
Ar -1.609532886751156 -0.7737026894041524 -0.363411544299869
Ar 0.009928060985558266 -0.102388802016534 0.2141870138168033
Ar 0.5012072583749193 -0.1361255364059497 1.235911128781014
Ar -0.4649912957990917 0.344714594048869 1.083280056232977
Ar -0.1644469878732497 0.1091065774075751 -1.896959942925201
Ar 1.427596354487289 1.058205904910013 0.1785102396325964
38
algorithm=ssw size=38 seed=1 index=5 energy=-165.8216656675088 entry_id=5 visits=2
Ar -0.5395746310199036 -0.9062427910768088 -1.442190796759877
Ar -1.115812382465803 -0.1548374745149622 0.1420647157665738
Ar -0.2924611424239046 -0.3958023709627813 -0.5403212429919456
Ar -0.7651614540708266 0.7741091242693736 0.5956186810093376
Ar -1.264541474041024 -0.2092097952948762 -0.9413493818740205
Ar 1.405554385225375 -0.06649403247192384 -0.6551305346464028
Ar -1.706408638252267 0.4041063286488891 0.9294432227775892
Ar 0.9997454169531779 0.3316544595639377 0.4187325793661021
Ar -0.6545626759877989 1.677845160095481 -0.02056424744087777
Ar -0.9364807329831972 0.8667024034394796 1.644691451491504
Ar -0.3095930561220332 1.63170132749044 1.074629417245273
Ar 0.5319001139526572 -0.6526018976207235 -1.15969688980776
Ar 0.09129775773600683 -0.3667375635710982 -2.183900046080785
Ar 1.281486988354046 1.022976554711722 -0.9901033607958765
Ar -0.2428670406902951 0.2598378859575601 -1.379654960639219
Ar 0.3822735816726924 1.587511209825348 -0.631439571869946
Ar -1.058918767291188 -1.156526185438795 -0.4191723014759066
Ar 0.6640191163763119 -0.6402903560547772 -0.05042479846276273
Ar 0.4677092140212948 -0.4824692316867111 1.090396580616306
Ar -0.575003105512453 0.6611764639487586 -0.4519052247320218
Ar -1.577810959104956 0.8697658417532108 -0.1262170575089604
Ar -0.3418946252508656 -0.9624082247791741 0.4193383054121828
Ar 0.2024327212039016 1.073024695070522 0.2723218457179485
Ar -1.03968292488472 -0.07728044984286692 -2.022683246481137
Ar -1.445599599887825 1.552446573056723 0.8220711317823308
Ar -1.330908838262667 0.7912921764714027 -1.278699368120741
Ar 0.8225943739047 1.411300513110097 1.090375340117878
Ar 0.8848280065317154 0.2280016229304208 -1.635787957174417
Ar -0.6250786312932606 0.9635522866855242 -2.120298795121466
Ar 1.222505866945335 1.362485124366562 0.05375658573492495
Ar -0.5703534792749556 1.530466399003522 -1.132825380926044
Ar 0.4647098938339695 0.4291825332601885 -0.5768829521449809
Ar 0.01782817842097149 -1.431198600340692 -0.5524551321503234
Ar -0.04435073724668225 0.06414002635360541 0.3436236497015708
Ar 0.1083427021599543 0.5930449772374868 1.27332856162971
Ar -0.7068474854077204 -0.1652480797553814 1.177777394189696
Ar 0.3450724386481172 1.156358362680291 -1.618558673715968
Ar 0.3702685829333186 2.133965506603624 0.3351864967743554
38
algorithm=ssw size=38 seed=1 index=6 energy=-165.6021783913883 entry_id=6 visits=2
Ar -1.71289089916298 -0.05979914448141861 -1.253667920081198
Ar -1.680707804107047 0.8693911092881068 0.4663668917192703
Ar -1.016358223388487 0.2569522146540367 -0.1028646913052802
Ar 0.4701053414881759 0.9243300227943103 0.4892360991569974
Ar -1.782677434193792 0.8466751806624253 -0.6575768263869104
Ar 0.6683907798729765 -0.7501051623490534 -0.1618016418127299
Ar -0.01198712121976902 1.851637776144178 0.1446925785913865
Ar -0.2953929751111186 -0.6928128966749624 1.138066686086966
Ar 0.8114550488115937 1.404980527500488 -0.4388250534440912
Ar 0.1800636225489961 1.572331873153489 1.283728457775516
Ar 1.139813838178363 0.9040647180136525 1.314266342535482
Ar -0.8109179803168471 -0.6341999751120011 -1.566386572978592
Ar -1.103503501648226 0.293160438630263 -2.143777210431329
Ar 0.8122686366841244 -0.3039849615257332 -1.196119053025783
Ar -0.8101902709492282 0.5553498052528555 -1.139266213520559
Ar 1.501972076206283 0.6525373231839547 -0.9453225693258774
Ar -2.027451672690109 -0.1077979126811943 -0.1394016084449354
Ar -0.3463800604239421 -1.016024957752738 0.05131481427324681
Ar -0.9837917063626478 0.1803200645836068 1.079502148332721
Ar -0.174955340019311 0.8652708869189037 -0.3437949246145794
Ar -1.024485952624997 1.50502659098773 -0.2578298800560989
Ar -1.27922200541218 -0.667395961270239 0.5062575461393674
Ar 0.7152125535163066 0.3003864468045113 -0.3170457461320768
Ar -1.225339053738885 1.528266750168941 -1.360364121078098
Ar 1.060605422058524 1.809325394177935 0.588202239687343
Ar -0.1756120199753231 1.703962039113016 -0.9977403315818434
Ar 0.9465044105795319 -0.04535623211774049 0.7008407410436389
Ar 0.04080737011067465 -1.169866739750359 -1.020452459058705
Ar -0.3565394121777454 1.123862001006231 -1.950361332232489
Ar 1.647812687660919 -0.216873073036745 -0.224672683570653
Ar 0.4186547857904184 0.7799246579632323 -1.240006605808828
Ar -0.180647910223944 -0.1781306239995458 -0.7116026303226871
Ar -1.174596727500127 -0.7139990631305453 -0.5696315900227471
Ar -0.09560505607193018 0.01001454705128121 0.3560639994772301
Ar 0.08475352009201867 0.4103766519799271 1.35628591544232
Ar -0.5867586775522874 1.055256243353297 0.6428130576907392
Ar -0.04313461657437707 0.04215771729724307 -1.843320877662734
Ar 1.519383285244022 0.8200862263212877 0.2172890633599054
38
algorithm=ssw size=38 seed=1 index=7 energy=-166.2915376233001 entry_id=7 visits=3
Ar -0.7372962790767579 -0.2832000873491646 -1.976483198643626
Ar -1.538914175791629 0.03907893506025938 -0.3836692142420021
Ar -0.6291195601916514 -0.1858175425412018 -0.8937124513245784
Ar -0.2785584212185628 0.9277387233522685 0.7053853687670767
Ar -1.318214024992654 0.4611224806053913 -1.403849913501022
Ar 0.7244199986797681 -0.4711018219732673 0.2350829230530456
Ar -0.7775055829649845 1.710382212721731 0.1771137979668983
Ar -0.2577227630165125 -0.9185434044418599 0.6593942801124437
Ar 0.3561914790146126 1.658605897558954 0.1910763621033062
Ar -1.074790461852198 1.312076864857728 1.319327408037329
Ar -0.1050296129842832 0.9219929219159507 1.776443847250751
Ar 0.2384874097869727 -0.5471885315609165 -1.533096010708975
Ar -0.7571933265608637 0.7898544181888751 -2.321877137567789
Ar 1.396163215058129 0.2680662578863322 -0.393567891211162
Ar -0.1021074853950396 0.5338826562726883 -1.489981609327764
Ar 1.396144480058731 1.253070812979188 0.1495938671344641
Ar -1.559755909964084 -0.627283871642674 -1.265620611252981
Ar 0.03635398566843673 -0.9576003665167797 -0.4538698105983103
Ar -1.327427232454312 -0.4323841361385227 0.6021686019664936
Ar -0.3693878745135399 0.8776251095498709 -0.4521202071840921
Ar -1.428014643954073 1.149310638419705 -0.544538188733067
Ar -1.03978504379161 -0.9755593210664673 -0.2860861121919352
Ar 0.546676135112758 0.600152158641565 0.1898065458886416
Ar -0.7766141413467849 1.399781576973895 -1.393865675396207
Ar -0.1251873084260648 1.89102508058605 1.162250640339447
Ar -0.1116765835989858 1.924933339063854 -0.7348415869380713
Ar 0.2870545437862366 0.06384307812067483 1.093930353847451
Ar 1.087431752899062 -0.7168659940148375 -0.8227813422801166
Ar 0.2845584523472666 1.521692904258681 -1.710596315538679
Ar 1.387930856513689 0.2710286604498415 0.7622467115044446
Ar 0.6702707922428707 1.104161890391633 -0.7603276923768595
Ar 0.3565052822509899 0.05266208645746996 -0.652761890742061
Ar -0.6214252122091269 -1.205572806150794 -1.313409142988023
Ar -0.408414325958532 -0.004733423355782976 0.1548585539497674
Ar -0.7825456027583115 0.1806921958148124 1.301293227564895
Ar -1.270361042386719 0.6842673203682051 0.4289543337811281
Ar 1.002161594513047 0.2973132423616057 -1.471332242742406
Ar 0.7453535948714726 1.140790347017108 1.102555460635165
38
algorithm=ssw size=38 seed=1 index=8 energy=-164.3097477096193 entry_id=8 visits=2
Ar -0.6784764222696691 -0.4564791711979785 -1.933922858467636
Ar -1.368027060434869 0.4915349549606868 -0.4266408739682884
Ar -0.6134211953375511 -0.2535295241196348 -0.859911149935623
Ar -0.4415059418824754 0.9477835803616425 0.7847176232951294
Ar -1.08569025629577 0.4845978063224703 -1.496789245379142
Ar 0.7721573032294502 -0.3620698424285758 0.2888526137764448
Ar -0.9295640340195981 1.499907845956793 0.01307706750809494
Ar -0.1879350842395235 -0.7995578528551923 0.7133162522795582
Ar 0.1071995281629149 1.780865400946322 0.3046238787347745
Ar -1.171475522419388 1.11311321866904 1.597877586313988
Ar -0.1535032199286132 0.811288292248461 1.843893691310083
Ar 0.2980345748433683 -0.7108357144172546 -1.419050670363223
Ar -0.5362972634076512 0.5645226280545417 -2.467023011061344
Ar 1.342675052460073 0.4062157006745495 -0.3490371071552836
Ar 0.007865504862833095 0.3247575863808629 -1.565215770942628
Ar 1.171717794957368 1.445840585248282 0.09266372829775243
Ar -1.646763023089667 -0.5213619117222436 -0.790768646590051
Ar 0.1343659429795474 -0.9856939207576605 -0.3621413565334984
Ar -1.525292587988851 -0.276532394848515 0.3516336292017642
Ar -0.3822871160170042 0.8168845702535205 -0.6537512209899439
Ar -1.222735459498459 1.461325075844911 -1.024923411846459
Ar -0.908573386991097 -1.015388332105054 -0.1127850007632438
Ar 0.3859131143696574 0.7327618587283453 0.1524106796386618
Ar -0.3399299428172696 1.332517750547632 -1.665303490524318
Ar -0.3268216963759659 1.846410170200911 1.364347737030569
Ar -0.1752706373759056 1.880071670878951 -0.7394564089677544
Ar 0.2496233382590913 0.1553333933495152 1.072501909176774
Ar 1.177716251859117 -0.6798046847088838 -0.7020377053006441
Ar 0.6799513650282037 1.055318750195304 -2.008214171245045
Ar 1.289518467699756 0.4983523076534687 0.7467832256526188
Ar 0.6302454503861276 1.082738326302438 -0.8902617792913922
Ar 0.3680413865547745 0.03143547129154481 -0.6168951836242771
Ar -0.6356153104135205 -1.286832990232204 -1.159569487144826
Ar -0.480631886317596 0.06682805189959613 0.149874119920746
Ar -0.8508570904516565 0.03990156357453681 1.203165388100757
Ar -1.502295981953011 0.7735291391724539 0.6167744750737216
Ar 1.08385563853169 0.1768893585250131 -1.421737999197304
Ar 0.5827463627379011 1.236661784273664 1.122016982393454
38
algorithm=ssw size=38 seed=1 index=9 energy=-165.2860332297276 entry_id=9 visits=2
Ar -0.8919462786543757 -0.8147774110321461 -1.177159380025545
Ar -1.141248460526285 -0.1938055459016042 0.6346232459821899
Ar -0.4769220307543359 -0.4015637818829305 -0.2406714139375466
Ar -0.4094960486371413 1.578911847413336 0.4680460914668291
Ar -1.558377752477073 -0.5931338643934768 -0.3048694419156597
Ar 1.202447841753194 -0.2968254443472826 -0.8861690030043636
Ar -2.077528033084186 0.2406759411408588 0.2750004755932505
Ar 0.745343520597629 0.1537028786983824 0.5564215933020495
Ar 0.2243324769127069 2.054204851440075 -0.3410174007616971
Ar -0.6730020862691044 1.404163409994058 1.51849922908627
Ar 0.6181514406023014 1.984917573173019 0.7361853956906501
Ar 0.1859617319397554 -0.6404480496877761 -1.091638423765966
Ar -0.2521631131119464 -0.3465022718165873 -2.04347530059106
Ar 1.542651428417952 0.6457108961627919 -1.354868150508463
Ar -0.5146799659636536 0.2241498530952661 -1.145392413313492
Ar 0.6950160968738752 1.217424417606554 -0.9372577148981025
Ar -0.8888493748513561 -1.221680992021779 0.3648940895987633
Ar 0.5618602413340612 -0.7464789551654274 -0.06717508844034585
Ar -0.5521917034111999 0.304240423833672 1.417724286463261
Ar -1.159507995137685 0.4401646968117592 -0.2893118608258822
Ar -2.114016614364947 0.867019237266065 -0.6299023142859297
Ar -0.1020095318347387 -0.5232880233230506 0.7918018060780071
Ar 0.504374200710062 1.117917476123478 0.1194611592906534
Ar -1.603948592474167 0.04395349013547056 -1.212015978892909
Ar -1.306963835796481 1.523636756605926 -0.1903069919428899
Ar -1.206506441420953 1.08469236819701 -1.215819122758133
Ar 1.352050471078381 1.094825127133413 0.7762591667083804
Ar 0.8874687511769994 -0.628630929650844 -1.933405915069934
Ar -0.1789596653541934 1.172460174455995 -1.623472547734963
Ar 1.379273938354916 0.6090318843057336 -0.2564114351349784
Ar -0.3421841873739531 1.117149767299228 -0.5378986884769122
Ar 0.3505302758050549 0.2556177637986994 -0.4814210413148003
Ar -0.2341676470502033 -1.444540774226036 -0.489093707085669
Ar -0.3058841039143665 0.4781765377055705 0.3729561189861574
Ar 0.28975141113036 0.9843996881553893 1.166169177540444
Ar -1.259252805991795 0.8939903909708101 0.7203894733454281
Ar 0.5077015999943473 0.3201176708523975 -1.553849893388622
Ar 1.321547799166531 1.749721424197286 -0.1627340426511258
38
algorithm=ssw size=38 seed=1 index=10 energy=-167.7087044631877 entry_id=10 visits=9
Ar 0.5999794333679883 1.517794842771622 -1.285542022059382
Ar -0.05860345592299307 -0.2821238190549327 -1.488666238278244
Ar 0.4707569479533211 0.4979123760373954 -0.8871938786990418
Ar -1.181685348330847 -0.3839930918266827 0.07510599233548897
Ar 0.05488917997932268 0.7458006091595534 -1.877953401835235
Ar 1.250961692383336 0.8683868568413642 0.7038713624817381
Ar -0.921337324030743 0.1658214599511969 -1.986619128345411
Ar 0.6425738231532755 -0.5191298268656831 0.2872703351578316
Ar -1.243353409765652 0.2689386425842802 0.9917132855008249
Ar -1.173528099900543 -1.36316386849336 -0.4194687237523775
Ar -0.9877265762213834 -0.8469177311074969 1.090008328157251
Ar 1.031204130395622 1.268444803107527 -0.2993774985189602
Ar -0.5562821965252955 2.308192153728442 -0.5288283319394702
Ar 0.3853168395743277 1.595016010650128 0.5310006794843406
Ar -0.07684069734107279 1.326359600329287 -0.4372228531479354
Ar -0.2827372990480914 0.86886432507151 1.04739931307431
Ar 0.9460372591465088 0.04435433099910874 -1.765890396728443
Ar 1.311378737551241 0.2065665626971938 -0.226566571123303
Ar -0.1750951127958743 -1.188133017899401 -0.8773787422185277
Ar -0.6080580974409244 0.5701548025695848 -1.016220947818236
Ar -1.471819945087098 1.004568994764259 -1.534897496469469
Ar 0.770293046273233 -0.5626298364299158 -0.8173971089044935
Ar -0.3044883372617422 -0.1431816234691228 0.659307144891232
Ar -0.5046102630165419 1.593065861125889 -1.41630586838281
Ar -1.608724918373523 0.3994733719279823 -0.5799873296715797
Ar -1.184851559733838 1.415524620272742 -0.5637649780261558
Ar 0.1548652667802799 -0.9163676415856847 1.242585073740653
Ar 0.5344631511890209 2.235837656600661 -0.4014578340721602
Ar -1.685469571083728 1.058016876569799 0.3509477693041027
Ar 0.5771899843466862 0.145279189804714 1.205584799062232
Ar -0.7351977954869809 0.6243895346111235 0.05813425476430104
Ar 0.3508134069484237 0.5497002589977945 0.1870927542091382
Ar 1.482547234279327 0.805356329816114 -1.179975663942409
Ar -0.1870903967965176 -0.2143860647397407 -0.3963422515743683
Ar -0.3056144457231568 -1.127982874065476 0.2252479056533397
Ar -1.047995254386069 -0.4445761179682188 -1.035028844266026
Ar -0.7161808989948077 1.667679064446403 0.4011871610461386
Ar -0.4273221726624562 -0.04961311880638235 1.71872398932717
38
algorithm=ssw size=38 seed=1 index=11 energy=-166.3997827362882 entry_id=11 visits=2
Ar 0.3211251849433485 2.225156654101773 -0.9161642077573496
Ar -0.3945336251811408 -0.4702915537802071 -1.500920633169037
Ar 0.3385029588828271 0.3680229697827534 -0.4121291925678995
Ar -1.331480224571635 -0.7952236939781032 -0.9335150304350408
Ar 0.2335980660781173 1.27751366868371 -1.481010443243119
Ar 1.294611644643765 0.654031102643206 0.17783205256202
Ar -0.6465031325946231 0.8890361848440944 -2.054667536539384
Ar 0.9614314646183032 -0.3862845484070141 0.1235951750952806
Ar -1.158511402177693 -0.2351550422941553 0.4616290980163603
Ar -0.9861039001588563 -1.232780148053687 0.03782450757888376
Ar -0.516181909847213 -0.9498344182016062 1.012106575769023
Ar 0.9226995046845805 1.300093519249802 -0.6034003327220527
Ar -0.5996170745446525 2.315923088591473 -0.2784316615126347
Ar 0.2254009587467997 0.9535686001637562 1.58830384789704
Ar -0.1325062019204732 1.357616008267664 -0.457017008056077
Ar -0.6795803472898262 0.5681450163333326 1.103389967723838
Ar 0.4314393001955356 0.2279176082465718 -1.498902426243941
Ar 1.314005153998303 0.1490650175370234 -0.8115133562061378
Ar -0.3616129103615957 -1.370586961486512 -0.8684907238181542
Ar -0.5484484332405104 0.5568097620303686 -1.045351578026583
Ar -1.52714866828867 1.051583450862453 -1.361916104207871
Ar 0.4919191988736535 -0.6438981009921659 -0.8361556963210273
Ar -0.01264022491064576 -0.1127235839337338 0.5315077423315614
Ar -0.7051139339268171 1.775513136325343 -1.281215943875623
Ar -1.471789671271994 0.2462658637856713 -0.5409138630060857
Ar -1.227085802092289 1.386498151167431 -0.3818189770635466
Ar 0.6010340335182305 -0.872626287757566 1.064984706621697
Ar 0.4068408436973544 2.008280435220599 0.1990431609122603
Ar -1.585920444869395 0.8080364360497869 0.4871595399593276
Ar 0.8762479320751244 0.2029096253611884 1.085317746082827
Ar -0.6331067212524184 0.5922250508515763 0.03605694764424663
Ar 0.2895137157753276 0.9498558775531392 0.4981051540776799
Ar 1.281813039000821 0.9421482334419743 -1.586218922539169
Ar -0.4873139870647648 -0.3576146724773255 -0.4213454344264973
Ar 0.1184375987263733 -1.115904778616655 0.09986533400165318
Ar -1.331283240288453 0.03909090849725438 -1.65995567433127
Ar -0.6231351687733825 1.554002422865329 0.5456940284053742
Ar -0.03034661643949118 -0.1470844993543238 1.631733199804811
38
algorithm=ssw size=38 seed=1 index=12 energy=-165.1413165254642 entry_id=12 visits=1
Ar -0.04243581496328849 0.2445078797025826 -1.695550973133264
Ar -0.4824493879248555 -0.6670142857007181 -1.150622654431378
Ar 0.3277587036449255 -0.06592308874450614 -0.7469579390279666
Ar -1.444117770884081 0.3059262748786296 -0.05433611081774923
Ar -1.092378549332679 0.2268848179579397 -1.274946361603593
Ar 0.07704691769453263 -0.05940559498405439 1.001287278901875
Ar -1.465379129102039 -0.5938041848234513 -0.6419338775919557
Ar -1.034655242617169 -0.3218719746502877 0.8425987044892973
Ar 1.248815221485055 0.4393144894312379 -0.3888684879524401
Ar -2.247214350447509 1.031156861352367 -0.03337472224614478
Ar -1.230132638731232 1.424875726734082 0.1347012638692404
Ar 1.282610793188313 -0.5956483424598316 -0.7601897380183503
Ar 1.051743771432056 0.3196230729224737 -1.460264460186394
Ar 0.2515588692595298 1.034216345277473 1.089914158225998
Ar 0.369642684123789 0.9967244424066755 -0.8561498538171223
Ar 0.968097882012619 1.385895766197846 0.07457224836271335
Ar 0.5466633554717105 -0.7116758666481654 -1.586093955802036
Ar 0.7345337577608041 -0.439897557876965 0.2023794915748129
Ar -0.1237151788836638 -1.04257224596664 0.5648090859522097
Ar -0.5800041237694465 0.7603458747617936 -0.5019649011484036
Ar -2.149118348297519 0.2674335655629014 -0.8887974506687315
Ar 0.2986173028959614 -1.126050197714143 -0.5195534094574262