38
algorithm=ssw size=38 seed=0 index=0 energy=-160.4492755533338 entry_id=0 visits=3
Ar -1.036370072872314 0.2151157142356723 -0.1223588693020958
Ar 0.1524447161011578 -0.2329397199110381 1.096511109545879
Ar -0.09865049258628775 1.529991583373683 0.6515548604819541
Ar -0.1963940223820844 0.8619402658921689 -0.1805225045026627
Ar 0.6723785163245416 1.48634063153161 -0.1864589229750787
Ar -1.367669154866489 -1.163736945069806 1.351454160932986
Ar 0.9697785802981564 1.510788958499327 0.9452366945450104
Ar 0.5860361759662889 0.6037815617051553 0.5016395882763774
Ar -0.6492901856523399 0.6007477108143232 -1.84643697090199
Ar 0.9930430623147751 -0.3930075668299863 0.212110407391478
Ar -1.010070779745817 0.9766236874631817 -0.889993172362735
Ar -0.3942442435834452 -2.252195799682792 0.08862785966292745
Ar 0.2624874485092946 0.7981879361917629 1.511238432041918
Ar -0.03961293348022241 -0.1538918593624607 0.06337249718323631
Ar 0.8163820205281229 -1.077802457158253 1.033287484278506
Ar -0.07478773900854942 -1.617881460397842 -0.7246311244504758
Ar -0.8744826789220486 -0.5112674527067693 0.6480825657748495
Ar -0.6728711492330669 1.736223206615984 -1.598402850431542
Ar -1.176212216176381 -1.481302276496322 0.2628787518843248
Ar -1.307403062947433 -0.1095735866305865 -1.142200606834848
Ar -0.7788172082755122 -2.080280556628203 1.102334251672849
Ar -1.756097574541056 -0.5826205635595328 -0.1220863840062772
Ar 0.852277530590956 -1.497169284765251 -0.03286881230016667
Ar -1.132867079300836 1.277338088109757 0.1780228776940674
Ar 1.186327660331057 0.05128075545645104 1.234178299377055
Ar -0.3905426533192608 -0.8150769059538622 -1.493798511218105
Ar -0.7307048291339074 -0.7826303861358481 -0.4623828398466189
Ar -0.2593883022999304 -1.1741058134544 1.409767228249718
Ar -0.0978555159037961 -1.19120200238558 0.3351349565861405
Ar -0.7720580255406092 -0.1887512098458081 1.679105165655962
Ar -0.2677113049266561 0.1187102966228271 -0.9518854824540831
Ar 0.4547079352298954 -0.6844980685640689 -0.723835263363269
Ar 0.3212888297398596 -2.035316133928713 0.8927986441085579
Ar -1.978735798925264 0.5445740563814943 -0.5124210182976444
Ar 0.1322068667427953 1.123937294950963 -1.170602193127586
Ar -0.5527174044133979 0.5361125960643511 0.8061088671295249
Ar -0.3987064423779174 1.861834656772222 -0.4873260384192482
Ar 0.7281067692576613 0.3911938395185384 -0.5601986865211096
38
algorithm=ssw size=38 seed=0 index=1 energy=-161.5661093506737 entry_id=1 visits=2
Ar -1.167117428333333 0.2828659309454788 0.07341516228410214
Ar 0.1158118713639072 -0.3446688631244759 1.142896661252826
Ar -0.23914242348563 1.473377694300047 1.070781165601389
Ar -0.3174031180508425 0.9778671848901304 0.0955394168686753
Ar 0.5345757173467159 1.621467562024445 0.273620757819039
Ar -1.407745718294457 -1.20920945885665 1.406700002548031
Ar 0.8075182525347817 1.353995183268985 1.468163970086936
Ar 0.432723232777603 0.6325418591544664 0.7718083731628274
Ar -0.7928479456973829 0.9244465242206801 -1.621842652480819
Ar 0.932530221442612 -0.2811695558096282 0.4303388305230951
Ar -1.323334700995639 0.14302562406789 -0.9662780317713624
Ar -0.8288660943456667 -1.644019252861664 -0.637376206533707
Ar 0.07323078339924162 0.5562114368907869 1.810938376998711
Ar -0.127804881944664 -0.03995419226313322 0.1318505596648686
Ar 0.7533935456066546 -1.218655280361045 1.005514428133808
Ar 0.2429709831369514 -1.437302750111112 -0.8295483925446802
Ar -0.8718212016713086 -0.563764719982088 0.7109853535907276
Ar -1.098082235975772 1.187974963226647 -0.593961229768714
Ar -1.415103010438371 -0.77498605464787 -0.1951285820856282
Ar -0.6758715822309996 -0.1964568266141994 -1.754222381092346
Ar -0.9745357433914309 -1.61862952503137 0.4388144570407791
Ar -0.4843483816695684 -1.310881137081465 -1.647680161578778
Ar 1.01115620178018 -1.306500858132686 -0.05757415100739894
Ar -1.242802966913693 1.296142374695273 0.5483019946833051
Ar 1.060098285872445 0.1125864247320546 1.489620934435795
Ar 0.3235793360725615 -0.5752807280630485 -1.591098694760756
Ar -0.4892501824079485 -0.6242119584928785 -0.7342277540626201
Ar -0.3127066088352962 -1.337695312002102 1.273610234760677
Ar -0.02874008356713214 -1.073265958271179 0.2063602694019351
Ar -0.749987589452679 -0.3544175768915516 1.788355638473513
Ar -0.2409961403640277 0.4000029637070298 -0.8552419397755953
Ar 0.5811828404811681 -0.4186306708892276 -0.5721822607432767
Ar -0.03321257915893829 -2.125086791495911 0.01805120589030294
Ar -1.426339745761916 -0.9086950640003411 -1.28260388563599
Ar -0.00312898349961711 1.47431290830771 -0.8028459192277433
Ar -0.6482174405141685 0.4564195095920041 1.009458848250115
Ar -0.5224700090866373 2.022479757267136 0.06143056614164946
Ar 0.6663107657925949 0.6472374244268674 -0.28971051338431
38
algorithm=ssw size=38 seed=0 index=2 energy=-165.4952694430193 entry_id=2 visits=2
Ar -1.611405356238865 0.1801627225886088 0.0590072656179939
Ar 0.06865692944165441 0.1864636160739249 0.8699564376605893
Ar -0.4702146642048105 1.549950824109101 -0.4351207269328937
Ar -0.8385746168745933 0.565281812679815 -0.6411190960329419
Ar 0.6260248511519544 1.495045542865 -0.6090674371084751
Ar -0.09966116728115702 -0.8711258958219409 1.764928613955733
Ar 0.1949233799122843 1.503030761543527 0.4665472079466203
Ar 0.123058049563525 0.6327724089930402 -0.1487639357568398
Ar -0.8432820391998437 0.1534901125984036 -1.63804132541841
Ar 1.1203175416411 0.919737885195629 0.1716386375478873
Ar -1.186497207184566 -0.4662585451980055 -0.7715452062424892
Ar -0.6355393228812712 -1.84209216912523 0.3001647774593386
Ar -0.3008752135052894 1.121226005722758 1.372953807592607
Ar -0.5805682794458837 -0.1183293302710467 0.08141254586669891
Ar 0.6875736544532962 -0.07770565812033682 1.736981896836962
Ar 0.4620333108485035 -1.542654456865518 0.1459025166268903
Ar -1.003146218521388 -0.1663057946333358 1.060286766063606
Ar -1.812080369318666 0.430981171844969 -1.057230524039753
Ar -1.278995169470735 -0.9227354664407686 0.2546819220663633
Ar -0.4815227464723273 -1.057098367557921 -1.413767257394983
Ar -1.012613734156903 -1.330296180503044 1.267406849830111
Ar -0.1172077048763464 -1.984633504894666 -0.7509175232237199
Ar 1.180218010857921 0.01296258880139555 0.7505087673651128
Ar -1.568634303856319 1.269223398469819 -0.3074771504737192
Ar 0.7807169177231205 0.9304081933254319 1.234855714412805
Ar 0.5767823268244786 -1.060373546614737 -0.8935962164822808
Ar -0.349160165085571 -1.03205488260362 -0.3468940852096875
Ar 0.7777880123322399 -0.9521981452974246 1.044057605685411
Ar -0.228947816690918 -0.8759607424721015 0.7027257744770535
Ar -0.377907205205052 0.1746611956544028 1.900213549538684
Ar -0.07222814506177801 -0.1588968850612839 -0.9093245390192092
Ar 0.4934176166410665 -0.4075442100640039 0.01634147824762387
Ar 0.04943115402230627 -1.811052592148362 1.174629581413622
Ar -1.200036110163037 -1.592824333761828 -0.6697697198011007
Ar -0.009826369111350389 0.8773338054965201 -1.255502575797431
Ar -0.7872408875538409 0.8776571461842604 0.4277726520835717
Ar -1.08507068715851 1.281392178750177 -1.383674991815219
Ar 0.9234989856270149 0.307832127292918 -0.7761276063868537
38
algorithm=ssw size=38 seed=0 index=3 energy=-164.9305375753406 entry_id=3 visits=2
Ar -1.64811940927366 -0.01985348332256076 0.3132028051305405
Ar 0.5243921192654356 0.01681062436019744 0.2147805229488083
Ar -0.6768032178149943 0.9611835334755945 -1.298351742610861
Ar -0.9693580671150509 0.09848526500495712 -0.6919541197612238
Ar 0.1893090952509542 1.50935592623279 -0.803468254498284
Ar -0.2016884361246076 0.5115055783120805 1.99502569585556
Ar 0.3746055735555917 1.089817928769588 0.2092017568585944
Ar 0.02668767947981382 0.447783238437284 -0.619541891505513
Ar -1.054774567519188 -0.8502063759394575 -1.239036181470221
Ar 1.0540131265997 0.7749168427564054 -0.6115014470806051
Ar -1.076577742069136 -0.8289048385430093 -0.1306672726414891
Ar -0.1132801597599331 -1.231202503310005 1.389528070873157
Ar 1.395303663698212 0.7056583769760002 0.435485813964158
Ar -0.5809798957790855 0.1472992960417533 0.2714469115297993
Ar 0.6671681179875273 0.5316556576074831 1.225314714744594
Ar 0.7960736906042452 -0.9851113005518791 -0.1906127402295708
Ar -1.403727499605397 1.008025044979606 0.588778206750929
Ar -1.936173557580691 -0.3584110566866615 -0.719544821657045
Ar -1.036334769898558 -0.749885487684011 0.9551044863718083
Ar -1.155364202523001 -1.796566697367344 -0.6014689757302109
Ar -1.129535645354574 0.2567187721202429 1.330642325212939
Ar 0.4491659066372614 -1.743087461033343 0.579880151561349
Ar 0.8069812541019246 -0.722853630838358 0.9525596077521707
Ar -1.733613875853908 0.7985511346954455 -0.4716658245008865
Ar 1.5246790237104 -0.167676541881182 -0.2156675239445106
Ar -0.08418263266273238 -1.654851400232315 -0.3954376470763263
Ar -0.1197253106249778 -0.8493488902286498 0.3659346634522077
Ar 0.4741469142668316 -0.4174685759117329 1.992570061538018
Ar -0.1280871808549883 -0.1564996863540727 1.155556859262482
Ar -0.3572223282523154 0.9416434667423513 0.978547114160521
Ar -0.1436548236949423 -0.6096713771523593 -0.6597135046744865
Ar 0.7821145022967497 -0.2103158331632184 -1.043319174334084
Ar -0.6813758849896061 -0.5105212663851422 2.017528384236719
Ar -0.7332096625242446 -1.72338538864247 0.4995528366695309
Ar -0.3149501222327764 -0.05384282923332899 -1.572910949255748
Ar -0.6794318942777964 1.134855861583842 -0.1966840008511406
Ar -1.442224183570916 0.1583488099494274 -1.642255576899021
Ar 0.4489596440239259 0.7465220571506017 -1.571804888995201
38
algorithm=ssw size=38 seed=0 index=4 energy=-166.7609876728647 entry_id=4 visits=2
Ar -1.376745862277335 -0.2480330031815071 0.8324268808231962
Ar 0.4218163346743969 0.5960941740488466 0.1269680102091136
Ar -1.985413327987689 0.4362302060173933 -0.7805199081946186
Ar -1.246876462919571 -0.1164753234255606 -0.2370438944885989
Ar -0.7170247120522362 1.021144302717184 -1.599526248590754
Ar 0.3629225868074135 0.3866998824716988 1.911246035603632
Ar -0.2907419355478106 1.448851982955687 0.1137898704622496
Ar -0.237053481396317 0.04482306733966094 -0.5395563042931637
Ar -0.7415406628666941 -0.9142266232753211 -0.7632949175180992
Ar 0.09755457713265242 1.041058966208857 -0.8424425563291593
Ar -1.484565644201374 -1.106806360207823 0.1078121740433415
Ar 0.2995676789732186 -1.192681065334124 0.8299135113092605
Ar 1.156165552603537 1.169321113533008 -0.4172294122469442
Ar -0.6109751215151173 0.4388179614199099 0.412242625383313
Ar 1.061757570227759 0.5524013027663948 1.031886359125931
Ar 1.387756810512315 -0.7072064843083296 -0.6699089213356757
Ar -1.016869795330228 1.273909549545159 0.9730627569288421
Ar -2.254260814434318 -0.2688627587133179 0.09191644461894719
Ar -0.4873295080664911 -0.6469819899907383 0.2848266195805396
Ar -0.9334101378563705 -1.927345295950299 -0.3894627633764828
Ar -0.686560027849923 0.3231104004044052 1.499006936643527
Ar 1.13156554342873 -1.397621983854023 0.1485282622508955
Ar 1.184561119160604 -0.540904605149385 0.8919132930915071
Ar -1.694578017423452 0.7022268906656192 0.3029423275723585
Ar 1.437501351384108 0.1589363171912189 0.05971972790266113
Ar 0.0598476574439371 -1.457587611543891 -0.2103750828601078
Ar 0.544379616918033 -0.4825067798401717 -0.00308555224804195
Ar 0.4979442824522786 -0.7002884444784389 1.786670773272173
Ar 0.1746308588452243 -0.08693289987660328 0.9393773854961626
Ar 0.0618925220312939 1.028769633001346 1.071366916764394
Ar 0.3195933837046487 -0.766381830716695 -1.042339498955819
Ar 0.8114650433977778 0.2076972371087043 -0.8458633427176478
Ar -0.5643018785102183 -0.7769645014105809 1.37761407279478
Ar -0.6849061635341047 -1.647789378586586 0.6579044564967306
Ar -1.062912813077249 0.01669786339494838 -1.29072381939925
Ar -0.9712095028220168 0.88146272588533 -0.5403969335542864
Ar -1.849141330218937 -0.7120904293739361 -0.8931828060623357
Ar -0.001300048289241146 0.1689065832757114 -1.591149027045655
38
algorithm=ssw size=38 seed=0 index=5 energy=-165.4997033555291 entry_id=5 visits=2
Ar -0.7431106331872471 -1.044848143852338 0.9611769980616852
Ar 0.243719656440019 0.6492869604468579 0.1897181888034947
Ar -2.21820517870054 -0.03766209886637113 0.4730092098476251
Ar -1.252613712105849 -0.433596956643901 0.2233583522445512
Ar -1.711505255223495 1.292744494699498 -0.2872518473707778
Ar 1.24168441157203 -0.2927319318865951 1.340513804838808
Ar -0.4260783717496249 1.068472584757094 0.9718818061850146
Ar -0.6201529138731013 0.2261611797985953 -0.3234582611993282
Ar -1.058501150035464 -0.6717574702672191 -0.8136078828037031
Ar -0.6132322617741609 1.299832421483219 -0.09393109574897254
Ar -1.153379514185146 -1.480629010131481 -0.01593686020997595
Ar 0.7104611138091789 -1.161226027068282 -0.2951249713964978
Ar 0.4839442136937754 1.639012378251032 -0.1635214271233632
Ar -0.4201780429432494 -0.008548107701286502 0.7306720746656966
Ar 1.283756828002995 0.4865893823022152 0.5282383767541488
Ar 0.7010381928136593 0.3141568839889072 -1.525718703666039
Ar -0.5187482982644561 0.2734278788435217 1.774977070162918
Ar -1.877897579961232 -1.095562033184909 0.7833835890320094
Ar -0.2829946942915624 -0.7979386246412439 -0.03427028216052573
Ar 0.2814763857114881 -1.388196099533268 0.6996889296723012
Ar 0.1441759646928282 -0.5881420379192738 1.466584032287408
Ar 1.04521926817964 -0.6896268120168385 -1.231093392387061
Ar 1.410812143553232 -0.3014497996494379 -0.2403637586942609
Ar -1.395569222614077 -0.1752677524619969 1.261617176784033
Ar 1.080155153101297 0.7244025424439303 -0.538021835817333
Ar -0.0357266225217795 -0.9915670759291333 -1.098351245743012
Ar 0.3755972431770321 -0.1194024235298926 -0.5707410852728456
Ar 1.378884631353654 -1.082441451365808 0.5747302698056838
Ar 0.5720248931107506 -0.3524611845532751 0.4758616890760434
Ar 0.4457937543069583 0.4575114817417743 1.253094978373106
Ar -0.3785325332461405 0.02265359871674656 -1.372593538442777
Ar 0.05020106747653246 0.9114205209946874 -0.8769151066395044
Ar 0.9544081836404599 -1.337963405945434 1.574172745345335
Ar -1.47496650120951 0.01048102897439214 -1.567714609165013
Ar -1.711940430739093 0.2099818240600314 -0.5077254162337145
Ar -1.296292027210306 0.6172487794733947 0.4719203662542466
Ar -2.067706682281725 -0.8523353663549231 -0.331733648413318
Ar -1.03281623699747 0.899442663260918 -1.071490238548501
38
algorithm=ssw size=38 seed=0 index=6 energy=-166.8391358936808 entry_id=6 visits=2
Ar -0.1260120891247504 0.7757855588034029 1.148987548531269
Ar 0.1920061381643391 -0.06792328773315763 -0.7565774848768733
Ar -1.769855811501937 1.151331031249677 0.3744258814008887
Ar -0.9837268779417169 0.4496240203359205 0.5714576716433049
Ar -1.828693919162476 0.4526418308109115 -1.078493150571048
Ar 1.707642021267777 0.3806253314762991 0.1020626588930899
Ar -0.09301345682808425 0.9829656975112793 -0.9831392066537205
Ar -0.7530207527072126 -0.2119333621273393 -0.2314781289347764
Ar -1.246508877782823 -0.5915733232207833 0.6956344399954472
Ar -0.7723270511601302 0.152494067347082 -1.265358870320007
Ar -0.8832077479447498 0.0371718254826947 1.560748557452894
Ar 0.6116889918267335 -0.9828503148380359 0.882962208614849
Ar 0.1194482889386334 -0.3352548847827811 -1.799066621561329
Ar -0.06792867289526966 0.6027303337382478 0.05006978421274589
Ar 1.287475881927681 -0.2434112316182399 -0.7507826584869833
Ar -0.1407215332860556 -1.841950388904204 -0.6550040824432501
Ar 0.2913427868532617 1.612607056513421 -0.1148798902072127
Ar -1.201145162092436 1.11723734732061 1.3780088540037
Ar -0.197838793520492 -0.2524770050163324 0.721752857684593
Ar -0.06776796581524715 -0.6991917553442137 1.701795300699318
Ar 0.8341493216641563 0.9074010182685298 0.5920398729085137
Ar 0.4068106771830294 -1.886514939237741 0.2991067347122491
Ar 1.144309989980997 -1.109017914797269 -0.07238924138543551
Ar -0.6649730658454011 1.469967045417721 0.43326718225911
Ar 0.5911906574973957 -1.063336380725198 -1.041053136709331
Ar -0.4319210480442277 -1.327099132555903 0.8167092948808821
Ar 0.05701217789052696 -0.9214527861837557 -0.0899846086381057
Ar 1.579574955520341 -0.4833266876637289 0.7755784647350734
Ar 0.7334011963085911 -0.1149545856830086 0.1876724843215152
Ar 0.8778885053897519 0.7575441703607745 -0.5119203706154127
Ar -0.9829743885934391 -1.280565292867026 -0.1477977137154913
Ar -0.4961623418377599 -0.8911082371318397 -1.064561184280672
Ar 0.7014182072349395 0.04173653783184662 1.281626940720697
Ar -2.038299652726386 -0.9800135387451208 0.04078125532669757
Ar -1.797919279959403 0.09482330525869634 -0.03456428365984057
Ar -1.035497294060118 0.8487485164765067 -0.4300358322915377
Ar -1.904329215629488 0.2470900268712883 1.081737629012847
Ar -1.538309557669976 -0.5990968811597756 -0.8743047055064074
38
algorithm=ssw size=38 seed=0 index=7 energy=-165.4900982381664 entry_id=7 visits=2
Ar -0.2935915472260336 1.029567532607007 0.919573471756251
Ar 0.1865010887354787 -0.2161604659297815 -0.7223980301198752
Ar -1.864966619589569 1.177267639673561 -0.06020495386877678
Ar -1.089856062778636 0.562559144115048 0.352559535241908
Ar -1.805041875150899 0.167584535761224 -1.31228362130495
Ar 1.629168420886133 0.4703182818936478 0.129842033736574
Ar -0.07342143015089735 0.7413048499662862 -1.216848770507171
Ar -0.7881237108352136 -0.2562428780674015 -0.2558194155718513
Ar -1.352571840065489 -0.4330957751305654 0.6885948221818374
Ar -0.7339106461445474 -0.1346620049347858 -1.344949269582459
Ar -1.075351714423781 0.3819157573628712 1.414972766434885
Ar 0.4840890222640357 -0.7200793249889237 1.109758070272839
Ar 0.8086810323906867 0.09331895598758869 -1.549325374110303
Ar -0.1320494977537133 0.6349260161292906 -0.11825454208959
Ar 1.279427844115082 -0.3294581443831851 -0.603848804317852
Ar -0.1250200550142705 -1.922398142926249 -0.2499616746262077
Ar 0.7175709479233224 1.05473165909697 0.4408872981351782
Ar -1.385548609044381 1.385808885401894 0.967902665331856
Ar -0.3135136692677705 -0.06529119934475386 0.7187814076754954
Ar -0.5460825651484549 -1.10205693232688 1.035443199965956
Ar 0.5219712474907279 0.3646289157307879 1.283928037113201
Ar 1.098317951898967 -1.033951311060768 0.2559279288921406
Ar 2.080789704804988 -0.5446111319666014 0.1298933274719149
Ar -0.7681721575704955 1.535416212885007 0.01410732419386701
Ar 0.6390415574145797 -1.229424380661567 -0.7306567958385597
Ar 0.3450064701905632 -1.736962975776852 0.7288005107116119
Ar 0.01396588343157379 -0.8951003624414177 0.1084645293415482
Ar 1.445260497775249 -0.2126902841355945 0.981299453608071
Ar 0.657852894677567 -0.02614768083662437 0.2456874246217373
Ar 0.8445013041994481 0.6875517433783962 -0.606476595529804
Ar -1.012497467502089 -1.286123779835115 0.0430240700752372
Ar -0.4476464771830368 -1.098111467810452 -0.8984632699275357
Ar -0.2739123411100895 -0.2867716623775357 1.78197254012063
Ar -2.08332209528457 -0.9826193736868224 0.07985136227322728
Ar -1.848631324347544 0.05457227589169217 -0.2168742154350713
Ar -1.064734252381995 0.7209392418586802 -0.7152483283332081
Ar -2.049571639271652 0.4517889619006549 0.8201004006317513
Ar -1.511403029433484 -0.8027685402794784 -0.8547240674721653
38
algorithm=ssw size=38 seed=0 index=8 energy=-165.1094462632684 entry_id=8 visits=2
Ar -0.4224038502688423 1.252146031550508 0.5619486796330397
Ar 0.5390438515298018 -0.556053132117968 0.0314445406122472
Ar -0.2444351498062501 1.529363852692684 -1.262546743714147
Ar -0.5109556657587082 0.8802254429565904 -0.4528542111834509
Ar -0.3278169456537701 -0.6334584516616786 -1.54358434146395
Ar 0.7648405927224013 -0.08336097223558278 1.761375442501189
Ar 1.23876357712477 0.2105753073561928 -0.3545308348746459
Ar -0.2602059109295224 -0.1457376274913586 -0.5710664122273416
Ar -1.328119465553062 0.1877124116522547 -0.6018612745206772
Ar 0.677999265812595 -0.4155932234408369 -1.073758779239607
Ar -1.428654345160234 1.073920497349061 0.08045208043768057
Ar -1.017161657229793 -0.4783471919933294 1.162334495181629
Ar 1.593286293869521 -0.7411172291758098 0.1772949023184155
Ar 0.2966684349123039 0.5029408740896989 0.1385026343146435
Ar 0.848194728174433 -0.9436613781272585 1.015394737141589
Ar -0.727294469496241 -1.822080909236713 -0.1952000937822297
Ar 0.3938539129061746 0.8148570396547825 1.18980877234827
Ar -0.7643515324380228 1.91086568354793 -0.3131596603749898
Ar -0.7532390900171503 0.2137827789826832 0.3416821691142358
Ar -1.562754277633466 -0.5280756711891009 0.2119636067637974
Ar -0.6597472028965715 0.5393825472883471 1.385155087934747
Ar -0.2200651328294546 -1.227086957456802 1.231082859100344
Ar 0.5093444519277877 -1.123872188143337 2.054492980110558
Ar 0.3202942156396237 1.538991607555354 -0.2566205665534771
Ar 0.2776545847048716 -1.603378992421029 0.3200170994835771
Ar -1.214263054062405 -1.47571668188166 0.7381622881346402
Ar -0.4939132142265745 -0.8313633463311645 0.2381732814137176
Ar -0.2884665179998341 -0.3521296123598852 1.969823491028462
Ar 0.0476834287991757 -0.199144695878126 0.939870068511565
Ar 1.116747823594338 0.09528725083018291 0.7374766944855422
Ar -1.052472655906029 -0.8798608442742789 -0.6973613982358375
Ar 0.03288861772873833 -1.209017650797705 -0.6787296908596537
Ar -1.673932265112767 0.3693220364430556 0.8986914288168191
Ar -1.385048430131105 -0.3111251601165908 -1.583207952668788
Ar -0.5886816039189928 0.4509375220485938 -1.441777022180715
Ar 0.4146479543972185 0.6529158497119859 -0.9656627385262426
Ar -1.331344580532702 1.22207952712138 -1.053432868721706
Ar -0.7033794747617261 -1.685651553761766 -1.344758299108096
38
algorithm=ssw size=38 seed=0 index=9 energy=-166.3419915874722 entry_id=9 visits=2
Ar 0.08176188391141305 0.3337871198342671 1.443357746337086
Ar -0.1897138370796526 -0.9570624767099269 -0.2029222147862267
Ar 1.558144224588467 0.8193378299300867 0.4287562149873004
Ar 0.5109928240160917 0.6009035892162571 0.4832907213254934
Ar 0.4471201379145222 0.2769336742391932 -1.359182516426242
Ar -0.9927962335935347 -1.535886087657871 1.299348420095358
Ar 0.8275574693229495 -1.216100047080402 0.1228727445799888
Ar 0.1000384233568185 0.07675441725809336 -0.3442424695218395
Ar -0.1599579488409552 1.152137694680934 -0.1620523612545358
Ar 0.6849611310770279 -0.7100149101470846 -0.8492859250606435
Ar -0.1454225230307148 1.321641958592754 0.9473855399443711
Ar -1.604024533913957 0.111675802560548 0.5368287641388002
Ar 0.07781574484312916 -2.022595829952487 -0.1548785921759139
Ar 0.2522443660256172 -0.424193570437692 0.6384669340864291
Ar -0.9414812320063896 -1.661919827059712 0.1758111822979458
Ar -1.349994744764156 -0.1658744642400599 -1.3550585125759
Ar -0.2418978981123599 -0.7277400821587586 1.581934954195646
Ar 0.9096692173995705 1.121018787790315 1.329344711333701
Ar -0.5255571921722687 0.3578791937932183 0.5119088989296762
Ar -1.23718506094014 0.8756670705033788 -0.1576025826535954
Ar -1.002560639405251 0.06362202269273355 1.456856213419167
Ar -1.095385904800815 -1.159262895831218 -0.8117527285088093
Ar -1.725514512972186 -0.8770806545204253 0.06309917213514449
Ar 1.138803127268189 0.01375143759470773 1.134465481339395
Ar -0.06036418017391863 -1.530258518680251 -1.128915882436846
Ar -1.992855114205288 0.08664577887270765 -0.490550758262274
Ar -0.9535662599545328 -0.1880482639427736 -0.3202979490734415
Ar -1.755193973400792 -0.748074295243746 1.195727476154111
Ar -0.8110037768010229 -0.6739420204633678 0.6441054240067297
Ar -0.0260249151164954 -1.467601430696263 0.7853185942303946
Ar -0.6006846856946528 0.5895299904584294 -1.003536306650994
Ar -0.3258001992192237 -0.4758336836827269 -1.190364206578935
Ar -1.223040338023316 1.060699393578364 0.9601410822508822
Ar 0.185353714013721 1.338903658104076 -1.193482773572165
Ar 0.891567412075425 0.8348976041578874 -0.5000236973636297
Ar 1.131277446168531 -0.1479730251305144 0.001733077424066519
Ar 0.7519984402990588 1.630199122267681 0.3015431975586729
Ar -0.4760746165395951 0.2229487282469195 -2.023112622718094
38
algorithm=ssw size=38 seed=0 index=10 energy=-165.8075413043101 entry_id=10 visits=2
Ar -0.1227679326630161 0.9983809840616809 1.110177489313438
Ar -0.3094590530206647 -1.100218610250763 -0.2325611210790524
Ar 0.9560006896788408 0.7331049179357658 1.055618162325261
Ar 0.3595726340198354 0.8099682650769782 0.1588258809863617
Ar 1.133408280765417 -0.3154912051199695 -0.8310446253077319
Ar -0.2458160370433198 -0.7521459063981885 1.57618653421386
Ar 0.7458362658841297 -0.8817524798912447 0.07270515222582044
Ar 0.1017132990933837 -0.1211447712910926 -0.357453558878838
Ar -0.2938149791573438 0.8399485194519515 -0.7034616359764787
Ar 0.4270166826732854 -1.09157352965067 -1.011653474697077
Ar -0.4807987004500592 1.511295241641545 0.1606046114182492
Ar -1.585845115497138 0.1100994241765035 0.5908627231021867
Ar 0.4096077866121284 -1.906341521488784 -0.2015236234041523
Ar 0.2188269341674351 -0.1020426852960637 0.7294442901523044
Ar -0.9569983654130131 -1.670865226931628 0.4416529352219773
Ar -1.688494891013049 -0.5769582496155642 -1.237845361559417
Ar 0.2927657982328541 0.1897219494060598 1.768275488862048
Ar 0.5465303722734346 1.751513452142677 0.6546913137712802
Ar -0.6024897129595865 0.4232200079569398 0.295429156173189
Ar -1.364674245793744 0.7920964701590024 -0.345352096361937
Ar -0.7785265014863606 0.1777064193350308 1.358485617922306
Ar -1.289060762606771 -1.379198037591155 -0.6029792594880858
Ar -1.736533672786231 -0.9066038941054556 0.2676080073823663
Ar 0.8708317623846566 -0.7597094467160947 1.242915169759897
Ar -0.3774316309577267 -1.863351740895621 -1.012299813234943
Ar -2.107049616246631 -0.04752138085201703 -0.3664430285060177
Ar -1.039377878659554 -0.2913174744728475 -0.3740243877128906
Ar -1.447491806113788 -0.7322251404586915 1.365891840966514
Ar -0.7177625165494765 -0.6074471378141153 0.6012531944823255
Ar 0.07134697505694394 -1.383741170126743 0.7531438068566522
Ar -0.9752756911817404 0.2652540351423421 -1.307526545629392
Ar -0.591315926868155 -0.7750383034152519 -1.243597302450938
Ar -1.221825479061264 1.107299052775082 0.8702844055820291
Ar 0.8084210590982622 0.7082493552641803 -0.8061177025872925
Ar 1.347157576423477 1.218217685394954 0.06133609275864985
Ar 1.169107353053208 0.1111962314268691 0.1706021970751149
Ar 0.4308130006742908 1.694863311882781 -0.4653594400818186
Ar 0.1570592869571912 0.02202537988937476 -1.411716642447045
38
algorithm=ssw size=38 seed=0 index=11 energy=-167.4759605925226 entry_id=11 visits=4
Ar -1.515793862004481 0.3059278245199197 -0.4648383624168381
Ar 0.302624388846407 0.1978031767309826 0.6076608539728371
Ar -0.90413740757661 1.185720680038368 -0.8419735455948618
Ar -0.5915577939709364 0.1698821018999296 -1.01441202991008
Ar 1.030204439642953 0.5436990775822412 -0.1546756235810938
Ar -1.158559161201741 0.3841461309949757 1.651688715033863
Ar 0.2733777638559013 1.247422553772662 0.2504185939092468
Ar 0.2268074466088496 -0.1582192119457915 -0.4164930177864254
Ar -0.2653540437574198 -0.8567667614882368 -1.134141281235837
Ar 1.353630499230611 0.2877414202559996 0.9006606290282339
Ar -1.362451236435616 -0.5642595323824741 -1.179327049575076
Ar -1.006855164795151 -1.209202891246062 0.605419557051858
Ar 0.6000085329970839 0.9884862290517115 1.304040896133073
Ar -0.5201701935623813 0.536346121819433 -0.01667286983939157
Ar -0.057716564256315 0.101950157451164 1.642498322850541
Ar 0.8806531572589735 -1.511999169722609 0.5601787552025432
Ar -1.432449870435895 0.667242817375994 0.584169352247042
Ar -1.434701912601891 0.5006773705795161 -1.587295691280505
Ar -0.7955423609052583 -0.5075683980283595 -0.2186662209331453
Ar -0.4594294248333819 -1.553307074925512 -0.2867775610285365
Ar -1.7099014574096 -0.3905820711060692 0.3825321765835408
Ar 0.7094446479489436 -0.6113865786038465 1.231873561555034
Ar -0.3266014859411114 -0.9577693276843345 1.439551476202697
Ar -0.8257953597433685 1.55628184187823 0.1991173062963894
Ar 1.001922131697979 0.177512805610224 1.949387575134129
Ar -0.1430593333146455 -1.858325436164493 0.7661792354069964
Ar 0.02831134398860919 -0.8383937709066758 0.4020950892733848
Ar -1.427373634224293 -0.6641201889535426 1.453595070117372
Ar -0.7147614187071524 -0.147457812305876 0.7998243727330826
Ar -0.4496505404376543 0.9185571712807126 1.014711576961132
Ar 0.5749126815308176 -1.199263817340251 -0.4902794566149801
Ar 1.075470018615924 -0.499551689930107 0.1983895411668106
Ar -1.564923572535525 -1.263351417056509 -0.3431602399770785
Ar 0.3505247357752273 0.01910817875607018 -1.513522187758075
Ar -0.3637703593972588 0.8654790561035285 -1.797210275033981
Ar 0.1912623692728851 0.8883024981836707 -0.7999053144151391
Ar -0.6498902438753851 -0.2290478783170111 -2.00736630859804
Ar 1.194497486171009 -0.3222413950408488 -0.8822411701324532
38
algorithm=ssw size=38 seed=0 index=12 energy=-167.2189508280021 entry_id=12 visits=3
Ar -1.494710265190742 -0.5117126255523687 -1.026684832263873
Ar 0.09021530086555044 0.1813668576660301 0.9179315041894408
Ar -1.047645056273582 0.4857806545992684 -0.807416519758905
Ar -0.04792149256083848 0.03616150420533762 -0.9598942617314291
Ar 0.7122969635850678 0.6376932770001963 -0.4259233187710214
Ar -1.561476401753789 0.8338211098924073 1.23672369140333
Ar 0.4696568822100302 1.147543843288616 0.5254126211435914
Ar 0.3441839298838692 -0.3296805448027196 -0.01589656331837869
Ar 0.5998530362058228 -0.8489035871955044 -0.961208872572239
Ar 1.116237389525927 0.2524257210898238 0.542027031500151
Ar -0.4833682188888163 -0.9424114164605859 -1.196010013741345
Ar -1.417823904006262 -0.9023253187214649 0.4565086335656491
Ar 0.2756420960707358 0.9923430369745968 1.634982967000652
Ar -0.2971355857227809 0.5572568275012024 -0.0176012683146984
Ar -0.6549294261179954 0.3417034532630699 1.718686602789934
Ar 0.3021420990816607 -1.698355238636261 0.742791831622601
Ar -1.304620156987038 0.9944472089675424 0.140778440107901
Ar -0.8014524896326293 -0.02743323082595164 -1.753961862454072
Ar -0.727750530479075 -0.422202968059105 -0.2482553145939239
Ar -0.08817302729872892 -1.321880330462665 -0.2334155120850524
Ar -1.744789319641133 0.005545534785677082 -0.07813865060128664