115
Lattice="13.75323 0.0 0.0 0.0 13.75323 0.0 0.0 0.0 23.89" Properties=species:S:1:pos:R:3 entry_id=21 rank=12 energy=-572.2919311523438 parent_id=20 pbc="T T F"
Pd       0.00000000       0.00000000      10.00000000
Pd       2.75064538       0.00000000      10.00000000
Pd       5.50129076       0.00000000      10.00000000
Pd       8.25193614       0.00000000      10.00000000
Pd      11.00258152       0.00000000      10.00000000
Pd       0.00000000       2.75064538      10.00000000
Pd       2.75064538       2.75064538      10.00000000
Pd       5.50129076       2.75064538      10.00000000
Pd       8.25193614       2.75064538      10.00000000
Pd      11.00258152       2.75064538      10.00000000
Pd       0.00000000       5.50129076      10.00000000
Pd       2.75064538       5.50129076      10.00000000
Pd       5.50129076       5.50129076      10.00000000
Pd       8.25193614       5.50129076      10.00000000
Pd      11.00258152       5.50129076      10.00000000
Pd       0.00000000       8.25193614      10.00000000
Pd       2.75064538       8.25193614      10.00000000
Pd       5.50129076       8.25193614      10.00000000
Pd       8.25193614       8.25193614      10.00000000
Pd      11.00258152       8.25193614      10.00000000
Pd       0.00000000      11.00258152      10.00000000
Pd       2.75064538      11.00258152      10.00000000
Pd       5.50129076      11.00258152      10.00000000
Pd       8.25193614      11.00258152      10.00000000
Pd      11.00258152      11.00258152      10.00000000
Pd       1.36300840       1.39843825      11.98243197
Pd       4.09630302       1.35701512      11.96713446
Pd       6.83929704       1.32818930      12.04881671
Pd       9.57512057       1.39592898      11.89594876
Pd      12.38684272       1.37174114      11.92044161
Pd       1.36057024       4.11431952      11.95858380
Pd       4.11486739       4.12907287      11.93994692
Pd       6.84558568       4.11051244      11.97599210
Pd       9.56728621       4.13975942      11.94281254
Pd      12.36578195       4.13265160      11.93417299
Pd       1.37110082       6.89256210      11.94010419
Pd       4.13935064       6.87026939      11.96482277
Pd       6.87097415       6.85831372      11.95140951
Pd       9.64205429       6.82915781      11.94515418
Pd      12.39111484       6.85622887      11.94896407
Pd       1.39456506       9.66755902      11.98816457
Pd       4.11777592       9.66324146      11.95099537
Pd       6.89476706       9.64088005      11.95142944
Pd       9.64982872       9.59779534      11.89439304
Pd      12.42487279       9.60955999      11.94161946
Pd       1.39287271      12.38330109      12.00739698
Pd       4.12842595      12.39104567      11.94045236
Pd       6.86816975      12.39901143      11.97280504
Pd       9.63028672      12.36702810      11.91406436
Pd      12.35082778      12.32241254      12.00991304
Pd      13.70410096       0.01174054      13.92162395
Pd       2.71556745       0.09050044      14.01099090
Pd       5.43653717      12.85883840      14.25823948
Pd       8.32711483      13.46646338      14.02232605
Pd      11.01108390      13.68947036      13.96247500
Pd      13.71550565       2.73059552      14.06542257
Pd       2.66940232       2.84944058      14.04313668
Pd       5.37172238       2.82658235      13.94584687
Pd       8.21693868       2.77691178      13.92214825
Pd      11.00056745       2.71278045      13.84727773
Pd       0.02500032       5.51658811      13.90572865
Pd       2.78524729       5.52076646      13.88634558
Pd       5.54672032       5.52345356      14.00883120
Pd       8.28581035       5.54468363      13.99551566
Pd      11.00863677       5.45662111      14.01878054
Pd       0.05673021       8.27758378      13.97504932
Pd       2.76562447       8.27809543      13.91000263
Pd       5.50519506       8.39576857      13.97351938
Pd       8.27113277       8.33984108      13.96318957
Pd      11.03613020       8.30230510      13.95176476
Pd       0.00379545      11.02807554      14.00661315
Pd       1.62899400       9.70727354      16.02665215
Pd       7.20282440      10.85396302      14.29636298
Pd       7.16945640      12.35573717      16.59559535
Pd      10.07068357      11.02264411      14.10753998
Pd      12.70334710       6.85487295      16.03758979
Pd       8.51355990       9.75601239      16.47583452
Pd       3.73796505      12.74029319      16.73595129
Pd       1.36384389       4.80314792      16.04401385
Pd      12.01899811       9.78300763      16.01360361
Pd       9.57204171       1.47181469      15.75624192
Pd       5.41740519       2.04285690      17.65764929
Pd       5.16692466       9.89296942      16.55043964
Pd       6.71133787       1.16643067      15.54681532
Pd      10.66633823      12.60177278      16.83362701
Pd       2.22492398       1.83253138      16.63156617
Pd       4.35992826       4.32236025      16.49020600
Pd      11.84082667       3.32849679      16.47445408
Pd       2.99769790      11.06226596      13.99823075
Pd       6.63455100       7.05912526      16.50671251
Pd       8.01069099       1.09136773      17.85593583
Pd       9.69609252       7.13227426      15.90595601
Pd       8.01728030       4.13345335      16.37601143
Pd       0.37459128      12.55241083      16.27524177
Pd       3.12903285       6.83625254      16.13165649
O        9.80417144       3.21803119      16.76650515
O       10.22642213      10.72070562      16.12539584
O       12.48743726      11.70220748      16.80403738
O       12.12817195       1.43750042      17.11899291
O       10.94298023       0.79029797      17.33335826
O        4.87010089       7.95476468      15.96786064
O        4.79590745       1.00293828      14.68374572
O        2.03689078      13.62078659      16.03524118
O        8.79405242      13.05691323      17.53543861
O        3.34162482      10.76993189      16.04026755
O        3.83660871       0.92660734      17.50511503
O        2.63482592       3.68605040      17.19194642
O        8.34556541       6.17616357      17.01821200
O        6.87528974       8.95945183      17.16017074
O        6.15254969       5.11396515      16.00938822
O        0.08835943       3.14742701      16.07475688
O       11.56356938       5.26523514      15.98766878
O       13.66747066       8.65055721      16.11487417
O        7.15983669       2.87496795      17.97733130
O        5.39486174      11.74315024      17.27744049
