115
Lattice="13.75323 0.0 0.0 0.0 13.75323 0.0 0.0 0.0 23.89" Properties=species:S:1:pos:R:3 entry_id=12 rank=25 energy=-571.8382568359375 parent_id=11 pbc="T T F"
Pd       0.00000000       0.00000000      10.00000000
Pd       2.75064538       0.00000000      10.00000000
Pd       5.50129076       0.00000000      10.00000000
Pd       8.25193614       0.00000000      10.00000000
Pd      11.00258152       0.00000000      10.00000000
Pd       0.00000000       2.75064538      10.00000000
Pd       2.75064538       2.75064538      10.00000000
Pd       5.50129076       2.75064538      10.00000000
Pd       8.25193614       2.75064538      10.00000000
Pd      11.00258152       2.75064538      10.00000000
Pd       0.00000000       5.50129076      10.00000000
Pd       2.75064538       5.50129076      10.00000000
Pd       5.50129076       5.50129076      10.00000000
Pd       8.25193614       5.50129076      10.00000000
Pd      11.00258152       5.50129076      10.00000000
Pd       0.00000000       8.25193614      10.00000000
Pd       2.75064538       8.25193614      10.00000000
Pd       5.50129076       8.25193614      10.00000000
Pd       8.25193614       8.25193614      10.00000000
Pd      11.00258152       8.25193614      10.00000000
Pd       0.00000000      11.00258152      10.00000000
Pd       2.75064538      11.00258152      10.00000000
Pd       5.50129076      11.00258152      10.00000000
Pd       8.25193614      11.00258152      10.00000000
Pd      11.00258152      11.00258152      10.00000000
Pd       1.33566212       1.39804329      12.05030133
Pd       4.08063669       1.39885843      11.96361970
Pd       6.82628921       1.39356598      11.96397608
Pd       9.57512057       1.39592898      11.89594876
Pd      12.38684272       1.37174114      11.92044161
Pd       1.37316812       4.10369450      11.95189217
Pd       4.12383401       4.12904920      11.95341256
Pd       6.83111930       4.12526288      12.00479217
Pd       9.56728621       4.13975942      11.94281254
Pd      12.36578195       4.13265160      11.93417299
Pd       1.37110082       6.89256210      11.94010419
Pd       4.13935064       6.87026939      11.96482277
Pd       6.87097415       6.85831372      11.95140951
Pd       9.64205429       6.82915781      11.94515418
Pd      12.39111484       6.85622887      11.94896407
Pd       1.35973154       9.68261490      12.01398479
Pd       4.11777592       9.66324146      11.95099537
Pd       6.89476706       9.64088005      11.95142944
Pd       9.64982872       9.59779534      11.89439304
Pd      12.42487279       9.60955999      11.94161946
Pd       1.36442375      12.42757196      11.99463017
Pd       4.09698845      12.38478985      11.99372401
Pd       6.86816975      12.39901143      11.97280504
Pd       9.63028672      12.36702810      11.91406436
Pd      12.40393157      12.33887197      11.95859207
Pd      13.72068916      13.73749465      14.03177878
Pd       2.72690829       0.13093774      14.06976207
Pd       5.54237201      13.72088099      13.98059060
Pd       8.25199097      13.74638951      13.88439638
Pd      10.98302969       0.00456194      13.78981424
Pd      13.67158451       2.71295720      14.12668219
Pd       2.64746830       2.88676903      14.05311827
Pd       5.46729049       2.85407976      14.04566297
Pd       8.20212061       2.72390900      13.95401323
Pd      10.98915326       2.73126459      13.84177120
Pd       0.05241221       5.41609044      13.89188752
Pd       2.83232855       5.60323554      13.87225772
Pd       5.53010237       5.53564906      14.05205438
Pd       8.24695345       5.45867681      13.96598238
Pd      11.04329714       5.40029822      13.94961646
Pd       0.10584863       8.19726859      13.99558500
Pd       2.78672086       8.33698389      13.95045470
Pd       5.52634858       8.23881740      13.96327134
Pd       8.27372905       8.30472671      13.95044224
Pd      11.07979325       8.17508142      14.04982206
Pd      10.90757196      10.87556024      13.84362283
Pd      13.60086675      10.93458270      14.17590885
Pd       2.56448147      11.16591282      14.02883818
Pd       5.41362184      10.95331620      13.93962468
Pd       8.31782369      11.05623403      14.43782861
Pd      12.64475982       6.48818357      16.09829453
Pd       9.81637311       9.32804160      16.29257446
Pd       2.61976885      13.07990284      16.66158657
Pd       1.52626764       5.92739765      16.12758657
Pd      12.70492529       9.22352257      16.26505068
Pd       9.65299204       1.35183060      15.69933295
Pd       4.94957027       1.41261540      16.98262185
Pd       6.11590752       9.17408750      16.50770745
Pd       5.27153132      12.36054210      16.35049052
Pd      10.94753350      12.32933478      16.00340233
Pd       1.46675315       2.41752417      16.84289064
Pd       4.36768202       4.23566155      16.39727781
Pd      11.62419056       3.12184677      16.63653909
Pd       3.69841537       9.86382762      16.07510390
Pd       6.84720735       6.29812399      16.64148495
Pd       7.70284130      13.63759370      16.60636834
Pd       9.85062386       6.59611790      16.14199528
Pd       7.74451038       3.32101868      16.74734048
Pd       0.04017041      13.74170558      16.87589937
Pd       4.03674163       7.03188562      15.97130797
O        9.68543207       2.77483051      17.07566998
O       11.29820841      10.45156822      16.85246887
O       12.95152988      12.48928874      15.60122203
O       11.95718018       1.17335158      17.33105636
O       10.81608426       0.39220114      17.19352544
O        5.46144465       7.52071267      17.34057308
O        4.36189139       1.36919650      14.96727800
O        0.64950988       1.24355715      18.12112274
O        8.92244891      12.12651739      16.15904647
O        2.26753977      11.26276467      16.06307031
O        3.03621194       1.14668817      17.29690501
O        2.44083911       4.02948143      15.96836373
O        8.32662567       5.14237711      16.03550739
O        8.33575464       7.99499321      16.03600722
O        6.11070761       4.50087692      17.18754236
O       13.54705402       3.31169041      16.09616580
O       11.23776292       5.10593645      16.08412768
O        0.42160676       7.75464639      16.07166139
O        6.89028775       1.56206926      17.29251328
O        6.59087711      10.89183429      15.67501362
