115
Lattice="13.75323 0.0 0.0 0.0 13.75323 0.0 0.0 0.0 23.89" Properties=species:S:1:pos:R:3 entry_id=31 rank=3 energy=-573.6143798828125 parent_id=30 pbc="T T F"
Pd       0.00000000       0.00000000      10.00000000
Pd       2.75064538       0.00000000      10.00000000
Pd       5.50129076       0.00000000      10.00000000
Pd       8.25193614       0.00000000      10.00000000
Pd      11.00258152       0.00000000      10.00000000
Pd       0.00000000       2.75064538      10.00000000
Pd       2.75064538       2.75064538      10.00000000
Pd       5.50129076       2.75064538      10.00000000
Pd       8.25193614       2.75064538      10.00000000
Pd      11.00258152       2.75064538      10.00000000
Pd       0.00000000       5.50129076      10.00000000
Pd       2.75064538       5.50129076      10.00000000
Pd       5.50129076       5.50129076      10.00000000
Pd       8.25193614       5.50129076      10.00000000
Pd      11.00258152       5.50129076      10.00000000
Pd       0.00000000       8.25193614      10.00000000
Pd       2.75064538       8.25193614      10.00000000
Pd       5.50129076       8.25193614      10.00000000
Pd       8.25193614       8.25193614      10.00000000
Pd      11.00258152       8.25193614      10.00000000
Pd       0.00000000      11.00258152      10.00000000
Pd       2.75064538      11.00258152      10.00000000
Pd       5.50129076      11.00258152      10.00000000
Pd       8.25193614      11.00258152      10.00000000
Pd      11.00258152      11.00258152      10.00000000
Pd       1.36759460       1.39148394      11.99367917
Pd       4.10426942       1.37246241      11.97149850
Pd       6.85537041       1.36207283      11.96324172
Pd       9.57512057       1.39592898      11.89594876
Pd      12.38684272       1.37174114      11.92044161
Pd       1.38848129       4.09798650      11.99709221
Pd       4.13180876       4.11993634      11.98378811
Pd       6.85190102       4.12218026      11.97724782
Pd       9.56728621       4.13975942      11.94281254
Pd      12.36578195       4.13265160      11.93417299
Pd       1.37110082       6.89256210      11.94010419
Pd       4.13935064       6.87026939      11.96482277
Pd       6.87097415       6.85831372      11.95140951
Pd       9.64205429       6.82915781      11.94515418
Pd      12.39111484       6.85622887      11.94896407
Pd       1.37393230       9.66001085      11.98674863
Pd       4.11777592       9.66324146      11.95099537
Pd       6.89476706       9.64088005      11.95142944
Pd       9.64982872       9.59779534      11.89439304
Pd      12.42487279       9.60955999      11.94161946
Pd       1.37899371      12.38306331      12.01011111
Pd       4.09825929      12.39925199      11.98669798
Pd       6.86816975      12.39901143      11.97280504
Pd       9.63028672      12.36702810      11.91406436
Pd      12.37454863      12.34946711      11.98068721
Pd      13.65962284       0.01232865      13.93954216
Pd       2.63946070       0.02314879      14.06488575
Pd       5.50918229      10.95260914      13.94202055
Pd       8.25679545      13.74142064      13.99375625
Pd      10.97444863       0.00487734      13.93587641
Pd       0.02990131       2.74599366      14.08002716
Pd       2.78082123       2.80445575      14.09179200
Pd       5.58659927       2.78108661      13.97874863
Pd       8.29427259       2.78078598      13.92060357
Pd      11.07008362       2.75918795      13.81522892
Pd       0.00170607       5.52284019      13.88898046
Pd       2.75290171       5.50989343      13.96055384
Pd       5.51273756       5.48649394      14.03090576
Pd       8.24993416       5.53253607      13.97086756
Pd      10.98670191       5.45340117      14.03694619
Pd       0.02154586       8.26693973      14.02640091
Pd       2.72708556       8.27065431      13.89592014
Pd       5.45075094       8.23111477      14.00833199
Pd       8.21162787       8.26507814      13.94123498
Pd      11.01515693       8.24365799      13.96091416
Pd      13.73612044      11.02238426      14.05473662
Pd       1.48449312       9.62694655      16.10201176
Pd       8.24162894      11.00128510      13.89014214
Pd       6.85161930      12.03225302      15.93889095
Pd      10.94384655      11.02893316      13.91475636
Pd      12.65254363       6.77195314      16.08389241
Pd       8.40867783       9.70454567      16.33644587
Pd       3.42624535      12.76924625      16.74184295
Pd       1.16950002       4.90833454      16.13336438
Pd      11.91390349       9.69978391      16.09874525
Pd       9.74022556       1.59609983      15.74149525
Pd       4.99124971       1.87403139      16.88586316
Pd       4.97943902       9.94480262      16.60830590
Pd       5.48969914      13.67244489      14.02097827
Pd      10.39535830      12.52303713      16.71443628
Pd       1.83821805       1.89163748      16.73494924
Pd       4.08032503       4.46400564      16.53752919
Pd      11.74478026       3.25421482      16.58641102
Pd       2.78953962      11.02852733      14.02635352
Pd       6.48268016       7.13067320      16.54287805
Pd       7.47777646       0.79360661      16.55303558
Pd       9.63226832       7.11022953      15.89835266
Pd       7.80011092       4.27116984      16.46653564
Pd       0.05806465      12.55407188      16.34406997
Pd       2.89333257       6.97044163      16.20127793
O        9.62145638       3.27428488      16.85894225
O       10.11921873      10.65498002      15.91430663
O       12.21849487      11.66555988      16.93384117
O       11.94920843       1.35378268      17.30644092
O       10.72153693       0.71046761      17.36907939
O        4.69464433       8.00015458      16.04117597
O        4.26631323       1.41340120      14.89762508
O        1.68465822      13.64886681      16.07177647
O        8.37567810      12.88206386      17.03593531
O        3.13548262      10.77758342      16.08495846
O        3.44424907       0.91167240      17.54173065
O        2.39106778       3.75612299      17.28130804
O        8.23670877       6.18375748      16.99712172
O        6.75815471       9.02559369      17.13620581
O        5.92275013       5.21934020      16.07942728
O        0.03804218       3.05288775      16.13128708
O       11.53571826       5.16759424      15.99455650
O       13.55120233       8.56900975      16.26979358
O        6.70699224       2.56105712      16.07990285
O        5.20305662      11.85203195      17.18147998
