115
Lattice="13.75323 0.0 0.0 0.0 13.75323 0.0 0.0 0.0 23.89" Properties=species:S:1:pos:R:3 entry_id=10 rank=27 energy=-571.6339111328125 parent_id=9 pbc="T T F"
Pd       0.00000000       0.00000000      10.00000000
Pd       2.75064538       0.00000000      10.00000000
Pd       5.50129076       0.00000000      10.00000000
Pd       8.25193614       0.00000000      10.00000000
Pd      11.00258152       0.00000000      10.00000000
Pd       0.00000000       2.75064538      10.00000000
Pd       2.75064538       2.75064538      10.00000000
Pd       5.50129076       2.75064538      10.00000000
Pd       8.25193614       2.75064538      10.00000000
Pd      11.00258152       2.75064538      10.00000000
Pd       0.00000000       5.50129076      10.00000000
Pd       2.75064538       5.50129076      10.00000000
Pd       5.50129076       5.50129076      10.00000000
Pd       8.25193614       5.50129076      10.00000000
Pd      11.00258152       5.50129076      10.00000000
Pd       0.00000000       8.25193614      10.00000000
Pd       2.75064538       8.25193614      10.00000000
Pd       5.50129076       8.25193614      10.00000000
Pd       8.25193614       8.25193614      10.00000000
Pd      11.00258152       8.25193614      10.00000000
Pd       0.00000000      11.00258152      10.00000000
Pd       2.75064538      11.00258152      10.00000000
Pd       5.50129076      11.00258152      10.00000000
Pd       8.25193614      11.00258152      10.00000000
Pd      11.00258152      11.00258152      10.00000000
Pd       1.32467798       1.38918866      12.05401758
Pd       4.06846929       1.39790689      11.96019510
Pd       6.81655979       1.40422941      11.95879537
Pd       9.57512057       1.39592898      11.89594876
Pd      12.38684272       1.37174114      11.92044161
Pd       1.38267810       4.09684996      11.95045493
Pd       4.13258315       4.12887300      11.95187836
Pd       6.83929746       4.13767485      12.00299217
Pd       9.56728621       4.13975942      11.94281254
Pd      12.36578195       4.13265160      11.93417299
Pd       1.37110082       6.89256210      11.94010419
Pd       4.13935064       6.87026939      11.96482277
Pd       6.87097415       6.85831372      11.95140951
Pd       9.64205429       6.82915781      11.94515418
Pd      12.39111484       6.85622887      11.94896407
Pd       1.36002126       9.67742089      12.01376706
Pd       4.11777592       9.66324146      11.95099537
Pd       6.89476706       9.64088005      11.95142944
Pd       9.64982872       9.59779534      11.89439304
Pd      12.42487279       9.60955999      11.94161946
Pd       1.35541366      12.42219209      11.99864553
Pd       4.08991728      12.38731801      11.98417935
Pd       6.86816975      12.39901143      11.97280504
Pd       9.63028672      12.36702810      11.91406436
Pd      12.39254198      12.33546298      11.96499060
Pd      13.69085228      13.69593585      14.06169424
Pd       2.70352619       0.10780891      14.06731282
Pd       5.52499334      13.74340452      13.97276283
Pd       8.23745888       0.03017390      13.87486850
Pd      10.97209346      13.74707114      13.80778147
Pd      13.68405094       2.68027273      14.12914283
Pd       2.65915776       2.87489539      14.04725595
Pd       5.48079000       2.86049358      14.04762961
Pd       8.20017240       2.75319715      13.94333719
Pd      11.00136144       2.72601441      13.82979249
Pd       0.06748618       5.38509017      13.89200221
Pd       2.83854749       5.60173270      13.87122810
Pd       5.54268015       5.54500817      14.05423364
Pd       8.26289992       5.46177351      13.99430799
Pd      11.04934857       5.39026077      13.94317766
Pd       0.11883463       8.13789990      13.99009590
Pd       2.77878867       8.33585953      13.95083541
Pd       5.49360709       8.25232940      13.94839724
Pd       8.22344529       8.25459868      13.94747829
Pd      11.05265885       8.15126557      13.98468328
Pd      13.63281228      10.91379035      14.14957785
Pd       2.57585290      11.15220171      14.03337644
Pd       5.38421454      10.97058033      13.92939325
Pd       8.28419392      11.12710598      14.40303794
Pd      10.90937295      10.90827591      13.89004712
Pd      12.69148229       6.40243898      16.13613624
Pd       9.51218611       9.28254772      16.12074346
Pd       2.60987897      13.09248786      16.67398791
Pd       1.55236775       5.89560433      16.14383878
Pd      12.66973364       9.11339089      16.13405843
Pd       9.62925461       1.39899695      15.67696394
Pd       4.96479784       1.46590619      16.93465687
Pd       6.02135059       9.26639902      16.49837434
Pd       5.24093601      12.40611773      16.35102923
Pd      10.93904431      12.38079461      16.19540227
Pd       1.49125347       2.40901698      16.85379622
Pd       4.40572118       4.26008639      16.39240391
Pd      11.64936344       3.10084328      16.63417355
Pd       3.56493515       9.81545966      16.13095449
Pd       6.88838101       6.37276168      16.64725745
Pd       7.68303534      13.68507282      16.60269482
Pd       9.98391044       6.66121086      16.13826220
Pd       7.79112201       3.41093679      16.74651102
Pd       0.04002916      13.74719202      16.92533726
Pd       4.02410862       7.03013304      15.96551249
O        9.69863281       2.80047583      17.07442185
O       11.14277978      10.36638435      16.02659523
O       12.94073451      12.49542838      15.68900386
O       11.95247869       1.18309206      17.33234907
O       10.77023289       0.42101012      17.13799852
O        5.43115658       7.56485889      17.31715746
O        4.29382380       1.39914910      14.93441425
O        0.66475633       1.25948023      18.15153101
O        8.89501816      12.15293541      16.21236909
O        2.21354275      11.28931932      16.06222173
O        3.06326136       1.15543534      17.30774248
O        2.47897682       4.01215198      15.97084295
O        8.41311753       5.25436428      16.07171537
O        7.84725731       8.19909831      16.08645972
O        6.15792564       4.57924607      17.15943915
O       13.57766897       3.29369057      16.09321642
O       11.29709874       5.01718766      16.04155718
O        0.43044518       7.70423591      16.15075028
O        6.90058389       1.64286573      17.25076197
O        6.53909493      10.96251284      15.65672123
