115
Lattice="13.75323 0.0 0.0 0.0 13.75323 0.0 0.0 0.0 23.89" Properties=species:S:1:pos:R:3 entry_id=25 rank=18 energy=-572.2421264648438 parent_id=24 pbc="T T F"
Pd       0.00000000       0.00000000      10.00000000
Pd       2.75064538       0.00000000      10.00000000
Pd       5.50129076       0.00000000      10.00000000
Pd       8.25193614       0.00000000      10.00000000
Pd      11.00258152       0.00000000      10.00000000
Pd       0.00000000       2.75064538      10.00000000
Pd       2.75064538       2.75064538      10.00000000
Pd       5.50129076       2.75064538      10.00000000
Pd       8.25193614       2.75064538      10.00000000
Pd      11.00258152       2.75064538      10.00000000
Pd       0.00000000       5.50129076      10.00000000
Pd       2.75064538       5.50129076      10.00000000
Pd       5.50129076       5.50129076      10.00000000
Pd       8.25193614       5.50129076      10.00000000
Pd      11.00258152       5.50129076      10.00000000
Pd       0.00000000       8.25193614      10.00000000
Pd       2.75064538       8.25193614      10.00000000
Pd       5.50129076       8.25193614      10.00000000
Pd       8.25193614       8.25193614      10.00000000
Pd      11.00258152       8.25193614      10.00000000
Pd       0.00000000      11.00258152      10.00000000
Pd       2.75064538      11.00258152      10.00000000
Pd       5.50129076      11.00258152      10.00000000
Pd       8.25193614      11.00258152      10.00000000
Pd      11.00258152      11.00258152      10.00000000
Pd       1.35957923       1.39507449      12.00752359
Pd       4.08981543       1.33776113      12.00759883
Pd       6.82558687       1.33851969      12.05669839
Pd       9.57512057       1.39592898      11.89594876
Pd      12.38684272       1.37174114      11.92044161
Pd       1.35183736       4.11084258      11.97237773
Pd       4.09885445       4.12579747      11.93015798
Pd       6.83431770       4.12960122      11.97232088
Pd       9.56728621       4.13975942      11.94281254
Pd      12.36578195       4.13265160      11.93417299
Pd       1.37110082       6.89256210      11.94010419
Pd       4.13935064       6.87026939      11.96482277
Pd       6.87097415       6.85831372      11.95140951
Pd       9.64205429       6.82915781      11.94515418
Pd      12.39111484       6.85622887      11.94896407
Pd       1.40810792       9.68402808      11.99071210
Pd       4.11777592       9.66324146      11.95099537
Pd       6.89476706       9.64088005      11.95142944
Pd       9.64982872       9.59779534      11.89439304
Pd      12.42487279       9.60955999      11.94161946
Pd       1.38060710      12.38811404      11.98920207
Pd       4.10942427      12.37387433      11.93531150
Pd       6.86816975      12.39901143      11.97280504
Pd       9.63028672      12.36702810      11.91406436
Pd      12.35034617      12.33082130      12.01100230
Pd      13.65010010       0.04467220      13.94593820
Pd       2.63903232      13.70144374      14.02076541
Pd       5.40744452      13.20489370      14.15374761
Pd       8.26758583      13.50786202      14.03063933
Pd      10.95411072      13.67029403      13.96649065
Pd      13.69691002       2.76880402      14.09753579
Pd       2.65962447       2.79533336      14.05170288
Pd       5.36912295       2.90634761      13.93186687
Pd       8.23320008       2.81605442      13.89312362
Pd      10.99765573       2.70274360      13.85139507
Pd       0.02126162       5.56004241      13.92421845
Pd       2.78793272       5.50653899      13.88714712
Pd       5.53823733       5.57911013      14.02697925
Pd       8.26608071       5.56351992      13.99913175
Pd      11.00538578       5.46302504      13.99001465
Pd       0.03392500       8.31287550      13.94517051
Pd       2.73187575       8.29920358      13.92147495
Pd       5.44276781       8.37800136      14.01640030
Pd       8.21297434       8.38513117      13.99911841
Pd      10.98767381       8.33618490      13.95429982
Pd       0.05689623      11.06467918      13.98153278
Pd       1.64143282       9.80109555      16.00941152
Pd       6.72199744      10.85098032      14.31000792
Pd       7.19039019      12.44057324      16.39809945
Pd       9.65236596      11.01197837      14.14707250
Pd      12.61373075       6.98471437      16.00411620
Pd       8.47459503       9.77492317      16.46829221
Pd       3.82024401      12.74704393      16.82549241
Pd       1.36514135       4.76217005      16.02232275
Pd      11.98866684       9.88939002      15.93909786
Pd       9.51597759       1.49729688      15.77213222
Pd       5.42775470       2.05008940      17.80806208
Pd       5.20006470       9.91329249      16.69166020
Pd       6.77638391       1.36676841      15.63364474
Pd      10.59564294      12.66364798      16.83246003
Pd       2.33450090       1.77794566      16.60415717
Pd       4.32121829       4.33005028      16.52753087
Pd      11.66950945       3.46484153      16.48590540
Pd       3.58738077      10.99823695      14.15031745
Pd       6.60881247       7.07653227      16.57059090
Pd       8.00197864       1.11513086      17.95772478
Pd       9.66355012       7.09741501      15.90001066
Pd       7.91790342       4.14183228      16.39889107
Pd       0.38961378      12.56731459      16.27358151
Pd       3.12708228       6.83612753      16.12809363
O        9.68338289       3.25240506      16.80322679
O       10.17011412      10.77548085      16.10607724
O       12.44277162      11.78995067      16.74148692
O       12.02258519       1.55865449      17.13205598
O       10.86745215       0.86191357      17.35393263
O        4.85574650       7.98750519      16.05873722
O        4.87070308       1.23570642      14.91875054
O        2.11528635      13.56017198      16.06792835
O        8.71946446      13.06587898      17.59566185
O        3.39581056      10.79058978      16.18109142
O        3.88072434       0.89958945      17.63388694
O        2.60671369       3.64283058      17.18714552
O        8.31357912       6.17188794      17.04600349
O        6.89376622       8.95775357      17.25714605
O        6.09626549       5.14460995      16.04166197
O       13.61368128       3.35769170      16.04599761
O       11.38212182       5.44198361      16.02340740
O       13.65210303       8.76447878      16.03011170
O        7.15875341       2.90556900      18.10988604
O        5.51099775      11.78869069      17.34977352
