115
Lattice="13.75323 0.0 0.0 0.0 13.75323 0.0 0.0 0.0 23.89" Properties=species:S:1:pos:R:3 entry_id=6 rank=30 energy=-571.3656005859375 parent_id=5 pbc="T T F"
Pd       0.00000000       0.00000000      10.00000000
Pd       2.75064538       0.00000000      10.00000000
Pd       5.50129076       0.00000000      10.00000000
Pd       8.25193614       0.00000000      10.00000000
Pd      11.00258152       0.00000000      10.00000000
Pd       0.00000000       2.75064538      10.00000000
Pd       2.75064538       2.75064538      10.00000000
Pd       5.50129076       2.75064538      10.00000000
Pd       8.25193614       2.75064538      10.00000000
Pd      11.00258152       2.75064538      10.00000000
Pd       0.00000000       5.50129076      10.00000000
Pd       2.75064538       5.50129076      10.00000000
Pd       5.50129076       5.50129076      10.00000000
Pd       8.25193614       5.50129076      10.00000000
Pd      11.00258152       5.50129076      10.00000000
Pd       0.00000000       8.25193614      10.00000000
Pd       2.75064538       8.25193614      10.00000000
Pd       5.50129076       8.25193614      10.00000000
Pd       8.25193614       8.25193614      10.00000000
Pd      11.00258152       8.25193614      10.00000000
Pd       0.00000000      11.00258152      10.00000000
Pd       2.75064538      11.00258152      10.00000000
Pd       5.50129076      11.00258152      10.00000000
Pd       8.25193614      11.00258152      10.00000000
Pd      11.00258152      11.00258152      10.00000000
Pd       1.34424270       1.42686291      12.01169123
Pd       4.09664935       1.39746030      11.91571749
Pd       6.85183650       1.36695326      11.94134645
Pd       9.57512057       1.39592898      11.89594876
Pd      12.38684272       1.37174114      11.92044161
Pd       1.37176476       4.12560433      12.00477537
Pd       4.09056185       4.15519662      11.97245441
Pd       6.82359323       4.14662255      11.97403251
Pd       9.56728621       4.13975942      11.94281254
Pd      12.36578195       4.13265160      11.93417299
Pd       1.37110082       6.89256210      11.94010419
Pd       4.13935064       6.87026939      11.96482277
Pd       6.87097415       6.85831372      11.95140951
Pd       9.64205429       6.82915781      11.94515418
Pd      12.39111484       6.85622887      11.94896407
Pd       1.34214986       9.69637896      11.98830193
Pd       4.11777592       9.66324146      11.95099537
Pd       6.89476706       9.64088005      11.95142944
Pd       9.64982872       9.59779534      11.89439304
Pd      12.42487279       9.60955999      11.94161946
Pd       1.33598904      12.44486882      12.00225066
Pd       4.10846756      12.37941239      11.96856467
Pd       6.86816975      12.39901143      11.97280504
Pd       9.63028672      12.36702810      11.91406436
Pd      12.41516614      12.32899195      12.03362405
Pd       0.03408510       0.07800989      14.08228744
Pd       2.75674655       0.10432886      13.97608717
Pd       5.53981872      13.74523519      13.96658657
Pd       8.31373874      13.68983629      13.88787561
Pd      11.05733493       0.00176057      13.89020489
Pd      13.64395268       2.77211003      14.05256219
Pd       2.68073939       2.87214665      14.09728284
Pd       5.50764169       2.80563589      13.90451087
Pd       8.18608537       2.75430131      13.87670579
Pd      10.95681902       2.69739540      13.84125089
Pd       0.02570014       5.49001799      13.93961089
Pd       2.72602057       5.59591979      13.99403136
Pd       5.46677142       5.50587445      14.09374334
Pd       8.19397128       5.48137558      13.98635281
Pd      11.00327745       5.36715513      13.92881376
Pd       0.07233261       8.31724947      14.00469290
Pd       2.75200072       8.35979372      13.88963806
Pd       5.51306846       8.23259714      14.01393232
Pd       8.25347264       8.23328502      13.93422749
Pd      11.02820241       8.17255790      13.89938834
Pd      13.54377781      11.18227690      14.65074218
Pd       2.64931982      11.15903381      13.94915886
Pd       5.45277594      10.95162811      13.98535510
Pd       8.19621907      10.95442571      14.10338041
Pd      10.96154241      10.93215654      13.89029046
Pd      12.45724936       6.49194871      16.09667058
Pd       8.95163615       9.31721200      16.34495998
Pd       2.10967590      13.10400257      16.47245025
Pd       1.27430655       6.12963605      16.35982966
Pd      12.25063244       9.18413417      16.10415501
Pd       9.43224571       1.45781844      15.70037641
Pd       4.60005964       1.56081332      16.92178259
Pd       5.56402952       9.29372151      16.68744875
Pd       4.69124294      12.43432292      16.23642289
Pd      10.53259091      12.36534536      16.23783825
Pd       1.21049564       2.40049291      16.57274670
Pd       3.87651429       4.39513661      16.38210952
Pd      11.37613118       3.15435728      16.61073334
Pd       3.07240051       9.83998093      16.19229582
Pd       6.62531260       6.59295542      16.66064990
Pd       7.22484539       0.15304999      16.35446204
Pd       9.80212880       6.86310888      15.90818215
Pd       7.55126447       3.61460120      16.53522434
Pd      13.39383954       0.05623970      17.02487172
Pd       3.73831035       7.14087343      15.96866048
O        9.38737745       2.92228485      17.05229636
O       10.60857490      10.33254468      15.92395437
O       12.53984773      12.23490294      16.27347269
O       11.60276803       1.21570302      17.40855543
O       10.41978144       0.44733027      17.20328158
O        5.01995998       7.53047523      17.43633506
O        4.20469288       1.50356767      14.86821936
O        0.34237745       1.46657754      18.04416044
O        8.49257447      12.41576724      15.75248859
O        1.60033623      11.29537657      15.82084091
O        2.70294140       1.11619490      17.13512439
O        2.01841275       4.37518249      16.88148437
O        8.22511078       5.53206689      16.09849830
O        7.42243559       8.42537621      17.12902156
O        5.81314888       4.73292334      16.13481709
O       13.29798140       3.34312519      15.97037735
O       11.09571572       5.07776934      16.01122435
O        0.12195641       7.89963208      16.10397681
O        6.53624031       1.88209244      17.02958409
O        6.06224930      11.01665151      15.95334050
