115
Lattice="13.75323 0.0 0.0 0.0 13.75323 0.0 0.0 0.0 23.89" Properties=species:S:1:pos:R:3 entry_id=15 rank=24 energy=-571.9244384765625 parent_id=13 pbc="T T F"
Pd       0.00000000       0.00000000      10.00000000
Pd       2.75064538       0.00000000      10.00000000
Pd       5.50129076       0.00000000      10.00000000
Pd       8.25193614       0.00000000      10.00000000
Pd      11.00258152       0.00000000      10.00000000
Pd       0.00000000       2.75064538      10.00000000
Pd       2.75064538       2.75064538      10.00000000
Pd       5.50129076       2.75064538      10.00000000
Pd       8.25193614       2.75064538      10.00000000
Pd      11.00258152       2.75064538      10.00000000
Pd       0.00000000       5.50129076      10.00000000
Pd       2.75064538       5.50129076      10.00000000
Pd       5.50129076       5.50129076      10.00000000
Pd       8.25193614       5.50129076      10.00000000
Pd      11.00258152       5.50129076      10.00000000
Pd       0.00000000       8.25193614      10.00000000
Pd       2.75064538       8.25193614      10.00000000
Pd       5.50129076       8.25193614      10.00000000
Pd       8.25193614       8.25193614      10.00000000
Pd      11.00258152       8.25193614      10.00000000
Pd       0.00000000      11.00258152      10.00000000
Pd       2.75064538      11.00258152      10.00000000
Pd       5.50129076      11.00258152      10.00000000
Pd       8.25193614      11.00258152      10.00000000
Pd      11.00258152      11.00258152      10.00000000
Pd       1.39916345       1.37739377      11.97326346
Pd       4.11615923       1.31442508      11.97105229
Pd       6.84237378       1.34162125      12.06143006
Pd       9.57512057       1.39592898      11.89594876
Pd      12.38684272       1.37174114      11.92044161
Pd       1.35000163       4.08309021      11.97732560
Pd       4.12506454       4.10067293      11.94258675
Pd       6.84427854       4.14247955      12.01909598
Pd       9.56728621       4.13975942      11.94281254
Pd      12.36578195       4.13265160      11.93417299
Pd       1.37110082       6.89256210      11.94010419
Pd       4.13935064       6.87026939      11.96482277
Pd       6.87097415       6.85831372      11.95140951
Pd       9.64205429       6.82915781      11.94515418
Pd      12.39111484       6.85622887      11.94896407
Pd       1.37354984       9.63716426      11.97566586
Pd       4.11777592       9.66324146      11.95099537
Pd       6.89476706       9.64088005      11.95142944
Pd       9.64982872       9.59779534      11.89439304
Pd      12.42487279       9.60955999      11.94161946
Pd       1.39967283      12.35855026      11.91927502
Pd       4.11583818      12.34221623      11.99240843
Pd       6.86816975      12.39901143      11.97280504
Pd       9.63028672      12.36702810      11.91406436
Pd      12.36818776      12.35435468      11.88854399
Pd      13.72439701      13.75074424      13.75694330
Pd       2.64963263      13.50820564      14.08459878
Pd       5.44995133      13.29962678      14.16011948
Pd       8.29477872      13.53351711      14.01939630
Pd      11.02295881      13.63503312      14.01122226
Pd      13.71156027       2.74009405      14.05290172
Pd       2.69953404       2.68111002      14.07046614
Pd       5.42546289       2.81901572      13.97216555
Pd       8.24404955       2.80915662      13.92450912
Pd      10.99284438       2.67293377      13.85229965
Pd       0.01982288       5.59746650      13.91707399
Pd       2.73816148       5.44875973      13.81923411
Pd       5.49599434       5.53842834      14.11483218
Pd       8.24292691       5.59711505      14.06668803
Pd      10.97821292       5.43615207      13.98684782
Pd       0.02942145       8.49347652      14.13207894
Pd       2.71511845       8.32367065      13.92890785
Pd       5.45519159       8.33807815      14.03075067
Pd       8.21168722       8.40517926      13.98064215
Pd      11.01737908       8.34698341      13.84527392
Pd      12.25422930      11.02336593      14.20323693
Pd       1.18698175      11.06317459      14.27653889
Pd       6.67214194      10.84429305      14.29907554
Pd       7.23854414      12.38481871      16.34591460
Pd       9.49613037      10.98135138      14.22817418
Pd      12.51306286       6.68304384      16.05394618
Pd       8.41196053       9.68621196      16.55801639
Pd       3.90153070      12.65660458      16.87797292
Pd       1.37643839       4.56161939      15.91841705
Pd      11.70238655       9.41928370      16.26117668
Pd       9.51385644       1.46857023      15.81649552
Pd       5.41504064       1.92772043      17.79016131
Pd       5.19264438       9.76427550      16.86262657
Pd       6.79557439       1.31148189      15.63180616
Pd      10.39168530      12.61084942      16.81140633
Pd       2.25080159       1.66530442      16.73381608
Pd       4.25688243       4.15644906      16.61890665
Pd      11.71419966       3.23393288      16.52473055
Pd       3.88376457      10.84323940      14.31283003
Pd       6.44739342       6.94399266      16.59661795
Pd       7.95682516       0.92195376      18.00208635
Pd       9.82835059       7.38426581      15.99013896
Pd       7.88415606       4.01192542      16.58731721
Pd       0.22721642      12.88110727      16.14962834
Pd       3.46227338       6.71420675      15.88619397
O        9.70405072       3.15566684      16.92417847
O       10.10779984      10.65137952      16.25043354
O       12.09232756      12.47616326      15.73078467
O       11.98752835       1.35457785      17.21645454
O       10.76208231       0.74478527      17.42152725
O        4.65132757       7.75685566      17.03914253
O        4.24455351       1.22512915      14.61166813
O        2.11530912      13.48032623      16.19341444
O        8.64777335      12.84401529      17.79198702
O        3.55475972      10.76321918      16.30030335
O        3.86649712       0.80670564      17.66482919
O        2.51504477       3.53792301      17.26138358
O        8.27501897       6.09588825      16.14235382
O        6.88607926       8.78455893      17.31578144
O        6.02046082       4.95101141      16.17079436
O       13.67277603       3.09558639      16.05962838
O       11.39896900       5.10371350      15.95381871
O       13.38489142       8.40657529      16.16838952
O        7.16886353       2.74359257      18.09690231
O        5.62875954      11.71772287      17.37068499
