115
Lattice="13.75323 0.0 0.0 0.0 13.75323 0.0 0.0 0.0 23.89" Properties=species:S:1:pos:R:3 entry_id=32 rank=6 energy=-573.6004638671875 parent_id=31 pbc="T T F"
Pd       0.00000000       0.00000000      10.00000000
Pd       2.75064538       0.00000000      10.00000000
Pd       5.50129076       0.00000000      10.00000000
Pd       8.25193614       0.00000000      10.00000000
Pd      11.00258152       0.00000000      10.00000000
Pd       0.00000000       2.75064538      10.00000000
Pd       2.75064538       2.75064538      10.00000000
Pd       5.50129076       2.75064538      10.00000000
Pd       8.25193614       2.75064538      10.00000000
Pd      11.00258152       2.75064538      10.00000000
Pd       0.00000000       5.50129076      10.00000000
Pd       2.75064538       5.50129076      10.00000000
Pd       5.50129076       5.50129076      10.00000000
Pd       8.25193614       5.50129076      10.00000000
Pd      11.00258152       5.50129076      10.00000000
Pd       0.00000000       8.25193614      10.00000000
Pd       2.75064538       8.25193614      10.00000000
Pd       5.50129076       8.25193614      10.00000000
Pd       8.25193614       8.25193614      10.00000000
Pd      11.00258152       8.25193614      10.00000000
Pd       0.00000000      11.00258152      10.00000000
Pd       2.75064538      11.00258152      10.00000000
Pd       5.50129076      11.00258152      10.00000000
Pd       8.25193614      11.00258152      10.00000000
Pd      11.00258152      11.00258152      10.00000000
Pd       1.36563180       1.40544576      11.99943845
Pd       4.10342403       1.37761242      11.97401586
Pd       6.85784357       1.36822313      11.96375067
Pd       9.57512057       1.39592898      11.89594876
Pd      12.38684272       1.37174114      11.92044161
Pd       1.38691363       4.10624072      12.00296339
Pd       4.12996026       4.12506604      11.98166034
Pd       6.85438417       4.13024888      11.97748719
Pd       9.56728621       4.13975942      11.94281254
Pd      12.36578195       4.13265160      11.93417299
Pd       1.37110082       6.89256210      11.94010419
Pd       4.13935064       6.87026939      11.96482277
Pd       6.87097415       6.85831372      11.95140951
Pd       9.64205429       6.82915781      11.94515418
Pd      12.39111484       6.85622887      11.94896407
Pd       1.37600088       9.66901961      11.98436840
Pd       4.11777592       9.66324146      11.95099537
Pd       6.89476706       9.64088005      11.95142944
Pd       9.64982872       9.59779534      11.89439304
Pd      12.42487279       9.60955999      11.94161946
Pd       1.38093940      12.39554735      12.01160413
Pd       4.09982303      12.40644180      11.98618089
Pd       6.86816975      12.39901143      11.97280504
Pd       9.63028672      12.36702810      11.91406436
Pd      12.37605828      12.35387008      11.97927319
Pd      13.65482584       0.03409893      13.94081347
Pd       2.63601064       0.04346244      14.07050841
Pd       5.51904176      10.96945029      13.94564831
Pd       8.25665360       0.00057844      13.99642570
Pd      10.97072835       0.01650562      13.94735323
Pd       0.03669580       2.76836575      14.10413203
Pd       2.78479018       2.81722161      14.09755267
Pd       5.59027073       2.80152143      13.96731402
Pd       8.30032101       2.79206853      13.92770630
Pd      11.08185159       2.76976117      13.81504741
Pd       0.00071085       5.53768559      13.89448102
Pd       2.75351035       5.52319463      13.96588876
Pd       5.51302923       5.50253067      14.03723953
Pd       8.25260312       5.54772797      13.97531849
Pd      10.98780648       5.46550476      14.03871369
Pd       0.04648907       8.28650213      14.02126029
Pd       2.74687335       8.28786864      13.88649976
Pd       5.46958361       8.24680375      14.00629428
Pd       8.22701732       8.27727454      13.95057287
Pd      11.03267610       8.25902622      13.96630670
Pd      13.74666011      11.04627001      14.05392390
Pd       1.52350668       9.67172546      16.09639191
Pd       8.24463408      11.01038067      13.88593760
Pd       6.87868518      12.07921303      15.93402001
Pd      10.94547996      11.04052891      13.90772347
Pd      12.67016967       6.82365860      16.08230218
Pd       8.44643463       9.75607466      16.33949417
Pd       3.47250207      12.82003548      16.75577219
Pd       1.17994270       4.96279260      16.14912724
Pd      11.95753319       9.75510824      16.08953120
Pd       9.76608880       1.64122600      15.75321676
Pd       5.02634054       1.93198911      16.88549035
Pd       5.01494535       9.99332295      16.61338914
Pd       5.48502761      13.68788874      14.02340228
Pd      10.42957949      12.57993280      16.71489014
Pd       1.87568722       1.94299532      16.74575920
Pd       4.10893554       4.51551166      16.54649382
Pd      11.75296311       3.32100749      16.60495533
Pd       2.80314437      11.05063510      14.02582229
Pd       6.51219217       7.18222737      16.55303356
Pd       7.50299738       0.84148706      16.55356932
Pd       9.65652723       7.13640550      15.90859920
Pd       7.82388010       4.32424839      16.47897254
Pd       0.10543596      12.60172877      16.34372692
Pd       2.92898629       7.00879196      16.19329618
O        9.63625447       3.32355160      16.87293366
O       10.15703671      10.70671316      15.91375609
O       12.25583938      11.72397301      16.92445560
O       11.96031159       1.43091997      17.34508642
O       10.74117979       0.77079231      17.38588622
O        4.72802025       8.05072927      16.04048802
O        4.29068590       1.44941396      14.90599990
O        1.73565847      13.69377406      16.08419947
O        8.40430075      12.93082663      17.03463475
O        3.17330566      10.82563962      16.08715017
O        3.48680229       0.96676872      17.55595659
O        2.41662841       3.81201938      17.28528476
O        8.25885437       6.23239657      17.02030137
O        6.79275091       9.07962882      17.14153577
O        5.95076105       5.27157516      16.08669200
O        0.04717362       3.11511777      16.15043590
O       11.53024768       5.23419124      16.00838357
O       13.58827990       8.61223518      16.25241953
O        6.74341959       2.61303740      16.07276584
O        5.24397408      11.89881295      17.19701566
