115
Lattice="13.75323 0.0 0.0 0.0 13.75323 0.0 0.0 0.0 23.89" Properties=species:S:1:pos:R:3 entry_id=7 rank=31 energy=-571.35791015625 parent_id=6 pbc="T T F"
Pd       0.00000000       0.00000000      10.00000000
Pd       2.75064538       0.00000000      10.00000000
Pd       5.50129076       0.00000000      10.00000000
Pd       8.25193614       0.00000000      10.00000000
Pd      11.00258152       0.00000000      10.00000000
Pd       0.00000000       2.75064538      10.00000000
Pd       2.75064538       2.75064538      10.00000000
Pd       5.50129076       2.75064538      10.00000000
Pd       8.25193614       2.75064538      10.00000000
Pd      11.00258152       2.75064538      10.00000000
Pd       0.00000000       5.50129076      10.00000000
Pd       2.75064538       5.50129076      10.00000000
Pd       5.50129076       5.50129076      10.00000000
Pd       8.25193614       5.50129076      10.00000000
Pd      11.00258152       5.50129076      10.00000000
Pd       0.00000000       8.25193614      10.00000000
Pd       2.75064538       8.25193614      10.00000000
Pd       5.50129076       8.25193614      10.00000000
Pd       8.25193614       8.25193614      10.00000000
Pd      11.00258152       8.25193614      10.00000000
Pd       0.00000000      11.00258152      10.00000000
Pd       2.75064538      11.00258152      10.00000000
Pd       5.50129076      11.00258152      10.00000000
Pd       8.25193614      11.00258152      10.00000000
Pd      11.00258152      11.00258152      10.00000000
Pd       1.34491108       1.42509802      12.00322564
Pd       4.09892386       1.39661133      11.91730879
Pd       6.85449643       1.36953116      11.94399594
Pd       9.57512057       1.39592898      11.89594876
Pd      12.38684272       1.37174114      11.92044161
Pd       1.37456564       4.12469656      12.00055663
Pd       4.09435080       4.15631991      11.96816652
Pd       6.82893341       4.14750027      11.97520796
Pd       9.56728621       4.13975942      11.94281254
Pd      12.36578195       4.13265160      11.93417299
Pd       1.37110082       6.89256210      11.94010419
Pd       4.13935064       6.87026939      11.96482277
Pd       6.87097415       6.85831372      11.95140951
Pd       9.64205429       6.82915781      11.94515418
Pd      12.39111484       6.85622887      11.94896407
Pd       1.33868707       9.68698428      11.98535541
Pd       4.11777592       9.66324146      11.95099537
Pd       6.89476706       9.64088005      11.95142944
Pd       9.64982872       9.59779534      11.89439304
Pd      12.42487279       9.60955999      11.94161946
Pd       1.33834156      12.44300727      11.98584694
Pd       4.11404705      12.38020356      11.96843632
Pd       6.86816975      12.39901143      11.97280504
Pd       9.63028672      12.36702810      11.91406436
Pd      12.41468452      12.32791177      12.02501540
Pd       0.03613232       0.05960006      14.06668829
Pd       2.75098744       0.09850678      13.96990026
Pd       5.54799694      13.73939223      13.97553088
Pd       8.31998567      13.69659689      13.89179346
Pd      11.06281249      13.75223407      13.88450312
Pd      13.65446022       2.75649520      14.04208716
Pd       2.68857663       2.85953790      14.08577958
Pd       5.50314585       2.80989328      13.90440227
Pd       8.18934648       2.75490444      13.88785307
Pd      10.96218743       2.70336490      13.83964425
Pd       0.04087908       5.48018730      13.93441354
Pd       2.74802750       5.58939140      13.98890040
Pd       5.49854363       5.50788867      14.08907604
Pd       8.22652961       5.48637787      13.99237220
Pd      11.02140481       5.37337310      13.93484621
Pd       0.08118039       8.30107824      14.00990996
Pd       2.75819339       8.35340034      13.89298026
Pd       5.52385288       8.23149141      14.01146899
Pd       8.26222524       8.23860302      13.94364984
Pd      11.02969082       8.17143327      13.89958381
Pd      13.56616403      11.16211038      14.64258630
Pd       2.62696074      11.15205800      13.92384239
Pd       5.43340293      10.94732604      13.98542912
Pd       8.19525942      10.96110406      14.13418550
Pd      10.96836229      10.92759920      13.88669618
Pd      12.50571052       6.45972039      16.11080584
Pd       9.00950689       9.29861638      16.36038216
Pd       2.17971150      13.05339845      16.46955325
Pd       1.32300878       6.09528075      16.35126187
Pd      12.27997455       9.15315552      16.10798864
Pd       9.47013310       1.45407605      15.70194047
Pd       4.66031770       1.53561078      16.91199376
Pd       5.67047661       9.28911723      16.67149225
Pd       4.79253849      12.41373527      16.28212823
Pd      10.58364303      12.35200150      16.23844677
Pd       1.26866269       2.35376588      16.55430389
Pd       3.93305179       4.37910421      16.35342797
Pd      11.43175508       3.12784138      16.61158873
Pd       3.21562908       9.88626051      16.14980230
Pd       6.68068811       6.58142679      16.66463365
Pd       7.27608792       0.15201788      16.38025507
Pd       9.85992117       6.84962895      15.94407072
Pd       7.60399390       3.60697128      16.54636611
Pd      13.45637017       0.01688244      17.00908909
Pd       3.78142556       7.14067932      15.96232894
O        9.44183148       2.90977709      17.06258084
O       10.65237000      10.32140528      15.92099371
O       12.58924941      12.19821008      16.27168827
O       11.66418725       1.18998317      17.39276658
O       10.47607701       0.43114951      17.19397670
O        5.07754164       7.54198572      17.41682897
O        4.23303457       1.47188666      14.86329826
O        0.40755439       1.42365827      18.03099842
O        8.54519487      12.42582054      15.76174974
O        1.65034690      11.25371558      15.82412405
O        2.76672448       1.07232600      17.11904531
O        2.07528011       4.33520061      16.84744262
O        8.27806610       5.51919449      16.10494248
O        7.50094732       8.39394464      17.16423958
O        5.86832102       4.72823026      16.12783607
O       13.35108883       3.30154383      15.96775712
O       11.14583689       5.04892625      16.01577824
O        0.15989200       7.87168084      16.11166926
O        6.59006548       1.88084431      17.05616390
O        6.17435476      11.01089389      15.91924460
