115
Lattice="13.75323 0.0 0.0 0.0 13.75323 0.0 0.0 0.0 23.89" Properties=species:S:1:pos:R:3 entry_id=11 rank=28 energy=-571.570068359375 parent_id=10 pbc="T T F"
Pd       0.00000000       0.00000000      10.00000000
Pd       2.75064538       0.00000000      10.00000000
Pd       5.50129076       0.00000000      10.00000000
Pd       8.25193614       0.00000000      10.00000000
Pd      11.00258152       0.00000000      10.00000000
Pd       0.00000000       2.75064538      10.00000000
Pd       2.75064538       2.75064538      10.00000000
Pd       5.50129076       2.75064538      10.00000000
Pd       8.25193614       2.75064538      10.00000000
Pd      11.00258152       2.75064538      10.00000000
Pd       0.00000000       5.50129076      10.00000000
Pd       2.75064538       5.50129076      10.00000000
Pd       5.50129076       5.50129076      10.00000000
Pd       8.25193614       5.50129076      10.00000000
Pd      11.00258152       5.50129076      10.00000000
Pd       0.00000000       8.25193614      10.00000000
Pd       2.75064538       8.25193614      10.00000000
Pd       5.50129076       8.25193614      10.00000000
Pd       8.25193614       8.25193614      10.00000000
Pd      11.00258152       8.25193614      10.00000000
Pd       0.00000000      11.00258152      10.00000000
Pd       2.75064538      11.00258152      10.00000000
Pd       5.50129076      11.00258152      10.00000000
Pd       8.25193614      11.00258152      10.00000000
Pd      11.00258152      11.00258152      10.00000000
Pd       1.31970332       1.38042430      12.00523298
Pd       4.09816476       1.39512302      11.91646205
Pd       6.85616210       1.39428477      11.96599325
Pd       9.57512057       1.39592898      11.89594876
Pd      12.38684272       1.37174114      11.92044161
Pd       1.37674677       4.11160525      11.95965129
Pd       4.14602232       4.13722264      11.94588205
Pd       6.84893310       4.13208732      12.00165715
Pd       9.56728621       4.13975942      11.94281254
Pd      12.36578195       4.13265160      11.93417299
Pd       1.37110082       6.89256210      11.94010419
Pd       4.13935064       6.87026939      11.96482277
Pd       6.87097415       6.85831372      11.95140951
Pd       9.64205429       6.82915781      11.94515418
Pd      12.39111484       6.85622887      11.94896407
Pd       1.38747625       9.66504684      12.00395672
Pd       4.11777592       9.66324146      11.95099537
Pd       6.89476706       9.64088005      11.95142944
Pd       9.64982872       9.59779534      11.89439304
Pd      12.42487279       9.60955999      11.94161946
Pd       1.35180103      12.40891232      11.99381478
Pd       4.09393508      12.38096320      11.97703443
Pd       6.86816975      12.39901143      11.97280504
Pd       9.63028672      12.36702810      11.91406436
Pd      12.38125446      12.36199527      11.94456656
Pd      13.66194154      13.74134474      14.04847747
Pd       2.67615320       0.07094389      14.00143058
Pd       5.51186800       0.04362273      13.92623641
Pd       8.23409364      13.73555341      14.02154849
Pd      10.94699365      13.74505977      13.85490372
Pd      13.71177165       2.72314971      14.07486134
Pd       2.68969190       2.80437470      13.94627412
Pd       5.54275480       2.89635462      14.04861237
Pd       8.23577086       2.71029915      13.96299217
Pd      11.01578730       2.73362250      13.83524460
Pd       0.06585151       5.43791666      13.93860380
Pd       2.85415214       5.53047035      13.91098585
Pd       5.55572250       5.59174815      14.06449213
Pd       8.25957726       5.42136976      13.98906078
Pd      11.05291724       5.41954122      13.93620527
Pd       0.12364163       8.20849940      13.97111570
Pd       2.80362887       8.29965727      13.98619479
Pd       5.52671283       8.29317811      13.95531070
Pd       8.25040988       8.20945588      13.94523230
Pd      11.07708679       8.19303992      13.99544545
Pd      13.67980614      10.99557284      14.04731908
Pd       2.60042723      11.13220851      14.03962657
Pd       5.41015198      11.01776545      13.95780542
Pd       8.25758984      11.00677723      14.06767147
Pd      10.95338097      10.97821042      13.87359476
Pd      12.68057772       6.66272616      16.11329275
Pd       9.66183519       9.47725965      16.05385059
Pd       2.83198079      13.24689468      16.64063708
Pd       1.59683785       6.32094810      16.09155198
Pd      12.71275338       9.39763206      16.08073143
Pd       9.71473225       1.45263032      15.75512201
Pd       5.16542122       1.56992772      16.63718265
Pd       6.26306639       9.33929527      16.47197866
Pd       5.56490874      12.53815973      16.32321532
Pd      11.10455763      12.58989359      16.45299114
Pd       1.66818471       2.67659853      16.68518947
Pd       4.47098671       4.44494990      16.42663827
Pd      11.75093835       3.30961111      16.58135369
Pd       3.79946303       9.91538368      16.07763124
Pd       6.93745077       6.37272586      16.70102601
Pd       7.92006287      13.73184783      16.94933590
Pd       9.88979711       6.70715301      16.12290357
Pd       7.83289118       3.40255945      16.80995017
Pd       0.25659894       0.24955660      16.89834888
Pd       4.16283899       7.18660293      16.04859235
O        9.81622721       2.93372270      17.06711550
O       11.21468414      10.68135977      15.94312680
O       13.05732569      12.72589102      15.78752300
O       12.15793266       1.43823026      17.31089678
O       10.97963508       0.65276370      17.27011413
O        5.62157987       7.69693053      17.36039656
O        4.19124199       1.49232737      14.80967646
O        0.91503129       1.55793378      18.05684044
O        9.18419674      12.30195619      16.87263622
O        2.47893118      11.41338215      16.08254846
O        3.24275790       1.35553806      17.17327407
O        2.55605247       4.47423874      15.90712852
O        8.38934608       5.20097782      16.06224971
O        8.29101384       8.03012476      16.08385224
O        6.19727771       4.59322482      17.28875332
O       13.67626189       3.51532484      15.97031337
O       11.30952277       5.24668249      16.03851110
O        0.40894941       7.99147989      16.18673928
O        6.98069590       1.66529442      17.41837083
O        6.77607383      11.02787274      15.59353040
