115
Lattice="13.75323 0.0 0.0 0.0 13.75323 0.0 0.0 0.0 23.89" Properties=species:S:1:pos:R:3 entry_id=2 rank=22 energy=-572.0166015625 parent_id=1 pbc="T T F"
Pd       0.00000000       0.00000000      10.00000000
Pd       2.75064538       0.00000000      10.00000000
Pd       5.50129076       0.00000000      10.00000000
Pd       8.25193614       0.00000000      10.00000000
Pd      11.00258152       0.00000000      10.00000000
Pd       0.00000000       2.75064538      10.00000000
Pd       2.75064538       2.75064538      10.00000000
Pd       5.50129076       2.75064538      10.00000000
Pd       8.25193614       2.75064538      10.00000000
Pd      11.00258152       2.75064538      10.00000000
Pd       0.00000000       5.50129076      10.00000000
Pd       2.75064538       5.50129076      10.00000000
Pd       5.50129076       5.50129076      10.00000000
Pd       8.25193614       5.50129076      10.00000000
Pd      11.00258152       5.50129076      10.00000000
Pd       0.00000000       8.25193614      10.00000000
Pd       2.75064538       8.25193614      10.00000000
Pd       5.50129076       8.25193614      10.00000000
Pd       8.25193614       8.25193614      10.00000000
Pd      11.00258152       8.25193614      10.00000000
Pd       0.00000000      11.00258152      10.00000000
Pd       2.75064538      11.00258152      10.00000000
Pd       5.50129076      11.00258152      10.00000000
Pd       8.25193614      11.00258152      10.00000000
Pd      11.00258152      11.00258152      10.00000000
Pd       1.37998500       1.35741609      11.99718983
Pd       4.11142154       1.32381519      11.96281517
Pd       6.84677085       1.34022035      12.06200592
Pd       9.57512057       1.39592898      11.89594876
Pd      12.38684272       1.37174114      11.92044161
Pd       1.35755011       4.07371303      11.97705367
Pd       4.13404281       4.10515848      11.94556354
Pd       6.85185410       4.14420980      12.02485025
Pd       9.56728621       4.13975942      11.94281254
Pd      12.36578195       4.13265160      11.93417299
Pd       1.37110082       6.89256210      11.94010419
Pd       4.13935064       6.87026939      11.96482277
Pd       6.87097415       6.85831372      11.95140951
Pd       9.64205429       6.82915781      11.94515418
Pd      12.39111484       6.85622887      11.94896407
Pd       1.37230465       9.63297137      11.96288139
Pd       4.11777592       9.66324146      11.95099537
Pd       6.89476706       9.64088005      11.95142944
Pd       9.64982872       9.59779534      11.89439304
Pd      12.42487279       9.60955999      11.94161946
Pd       1.37013698      12.35475149      11.94563947
Pd       4.10614712      12.34962899      11.98481116
Pd       6.86816975      12.39901143      11.97280504
Pd       9.63028672      12.36702810      11.91406436
Pd      12.36202262      12.34841310      11.89856368
Pd      13.68286294      13.70577047      13.86460260
Pd       2.65643906      13.53983012      14.05432212
Pd       5.47184893      13.32876869      14.14727109
Pd       8.30119263      13.48952991      14.02672958
Pd      10.98612804      13.63300938      13.93578065
Pd      13.74251459       2.71087560      14.05883853
Pd       2.72225843       2.71426612      14.06372041
Pd       5.44791179       2.81095436      13.97250271
Pd       8.27469047       2.80235966      13.91913268
Pd      11.02163390       2.68141911      13.84359104
Pd       0.02927178       5.57081348      13.90524352
Pd       2.74588419       5.47152044      13.81192440
Pd       5.50813318       5.54265253      14.11838398
Pd       8.26135036       5.60335952      14.08374174
Pd      10.99040104       5.44108220      14.00193542
Pd       0.06470695       8.48121931      14.11128398
Pd       2.75790930       8.34981957      13.93022754
Pd       5.50491488       8.35693074      14.02904947
Pd       8.25770370       8.41162807      13.98474837
Pd      11.04680945       8.34506034      13.84123934
Pd      12.44123306      11.16821775      14.26784896
Pd       1.38655425      10.98934005      14.29642130
Pd       6.83445886      10.87839242      14.29667858
Pd       7.27620283      12.40195575      16.38678413
Pd       9.68014113      10.98575360      14.20609962
Pd      12.57091693       6.65572773      16.05669869
Pd       8.43252215       9.69332666      16.55837046
Pd       3.95726261      12.73382322      16.85779523
Pd       1.41611886       4.61808674      15.93612782
Pd      11.76883386       9.41681046      16.23797527
Pd       9.60173893       1.41382738      15.77340890
Pd       5.48952439       1.97473069      17.77139774
Pd       5.22115282       9.80747796      16.86499544
Pd       6.85077693       1.31481125      15.62204197
Pd      10.58272870      12.51754315      16.82083236
Pd       2.27402588       1.74554544      16.74393977
Pd       4.31590812       4.20028384      16.63385979
Pd      11.82123796       3.18329918      16.49847351
Pd       4.05902825      10.85913752      14.31054589
Pd       6.48868421       6.97436783      16.58933494
Pd       8.06726542       0.95763641      17.95924567
Pd       9.89153700       7.41203193      16.01057626
Pd       7.95886906       4.00358155      16.53248574
Pd       0.42160191      12.69172551      16.24706481
Pd       3.47903989       6.72531164      15.88695314
O        9.78722787       3.11147800      16.85466300
O       10.13996075      10.61104139      16.22643535
O       12.42983392      11.84261011      16.25939146
O       12.12070512       1.29617445      17.15233168
O       10.91279640       0.67408752      17.35837973
O        4.68471898       7.79187903      17.00002502
O        4.22672547       1.24121803      14.59311279
O        2.18605626      13.55663652      16.15581302
O        8.77649122      12.89810700      17.68149787
O        3.60788364      10.83259931      16.27755721
O        3.91181830       0.89006043      17.63815553
O        2.56563073       3.61078778      17.28780269
O        8.32812771       6.14049416      16.15959856
O        6.90369743       8.81394096      17.32859084
O        6.07998351       4.97581645      16.15751040
O        0.05436974       3.04832529      16.07675874
O       11.48483545       5.05955932      15.94803180
O       13.43977414       8.38423889      16.14418591
O        7.25234409       2.76577626      18.08031477
O        5.65408195      11.76085211      17.39094491
