115
Lattice="13.75323 0.0 0.0 0.0 13.75323 0.0 0.0 0.0 23.89" Properties=species:S:1:pos:R:3 entry_id=19 rank=15 energy=-572.2848510742188 parent_id=18 pbc="T T F"
Pd       0.00000000       0.00000000      10.00000000
Pd       2.75064538       0.00000000      10.00000000
Pd       5.50129076       0.00000000      10.00000000
Pd       8.25193614       0.00000000      10.00000000
Pd      11.00258152       0.00000000      10.00000000
Pd       0.00000000       2.75064538      10.00000000
Pd       2.75064538       2.75064538      10.00000000
Pd       5.50129076       2.75064538      10.00000000
Pd       8.25193614       2.75064538      10.00000000
Pd      11.00258152       2.75064538      10.00000000
Pd       0.00000000       5.50129076      10.00000000
Pd       2.75064538       5.50129076      10.00000000
Pd       5.50129076       5.50129076      10.00000000
Pd       8.25193614       5.50129076      10.00000000
Pd      11.00258152       5.50129076      10.00000000
Pd       0.00000000       8.25193614      10.00000000
Pd       2.75064538       8.25193614      10.00000000
Pd       5.50129076       8.25193614      10.00000000
Pd       8.25193614       8.25193614      10.00000000
Pd      11.00258152       8.25193614      10.00000000
Pd       0.00000000      11.00258152      10.00000000
Pd       2.75064538      11.00258152      10.00000000
Pd       5.50129076      11.00258152      10.00000000
Pd       8.25193614      11.00258152      10.00000000
Pd      11.00258152      11.00258152      10.00000000
Pd       1.38894107       1.35635873      12.00687698
Pd       4.11261512       1.32269375      12.01657733
Pd       6.84031150       1.34177745      12.06100233
Pd       9.57512057       1.39592898      11.89594876
Pd      12.38684272       1.37174114      11.92044161
Pd       1.35349892       4.08538649      11.96527398
Pd       4.12294224       4.10912002      11.92225262
Pd       6.84700704       4.13563382      11.98166796
Pd       9.56728621       4.13975942      11.94281254
Pd      12.36578195       4.13265160      11.93417299
Pd       1.37110082       6.89256210      11.94010419
Pd       4.13935064       6.87026939      11.96482277
Pd       6.87097415       6.85831372      11.95140951
Pd       9.64205429       6.82915781      11.94515418
Pd      12.39111484       6.85622887      11.94896407
Pd       1.37448849       9.62962893      11.95758306
Pd       4.11777592       9.66324146      11.95099537
Pd       6.89476706       9.64088005      11.95142944
Pd       9.64982872       9.59779534      11.89439304
Pd      12.42487279       9.60955999      11.94161946
Pd       1.36729278      12.35572004      11.94215978
Pd       4.09619876      12.35848136      11.95839916
Pd       6.86816975      12.39901143      11.97280504
Pd       9.63028672      12.36702810      11.91406436
Pd      12.36198599      12.34909341      11.89629327
Pd      13.68091623      13.71691220      13.86134794
Pd       2.66319014      13.54425144      14.05857992
Pd       5.46041173      13.25795167      14.12373594
Pd       8.29520510      13.48458427      14.03846248
Pd      10.97745329      13.63913098      13.92785967
Pd      13.73622534       2.72500413      14.04869619
Pd       2.70384402       2.71346010      14.03813719
Pd       5.41123979       2.91624968      13.94561216
Pd       8.25908103       2.80537731      13.90819728
Pd      11.01486276       2.67735423      13.84386184
Pd       0.04391875       5.57657726      13.92166199
Pd       2.78024797       5.46854685      13.81152357
Pd       5.53610150       5.59400193      14.05339359
Pd       8.27577480       5.56810456      14.01640851
Pd      10.99041760       5.42848216      13.99080631
Pd       0.03478891       8.47562149      14.09721640
Pd       2.71840344       8.32341883      13.94130788
Pd       5.45453140       8.38671582      14.04527285
Pd       8.21830510       8.37553400      13.98856830
Pd      10.99136798       8.30880833      13.89925955
Pd      12.40370316      11.18165462      14.27230030
Pd       1.33245449      10.98035152      14.28645719
Pd       6.83641714      10.85795645      14.32118944
Pd       7.31098950      12.39930704      16.41504600
Pd       9.65367580      10.96780147      14.22264380
Pd      12.54430775       6.70949829      16.03573612
Pd       8.46564164       9.66822826      16.60239338
Pd       4.02067786      12.75348005      16.92079008
Pd       1.46431443       4.62720268      15.94580075
Pd      11.76890659       9.42082899      16.23278723
Pd       9.56049203       1.42358751      15.76072732
Pd       5.56595598       2.02885285      17.88966750
Pd       5.34184630       9.90518078      16.80892863
Pd       6.81703660       1.34066611      15.67097686
Pd      10.59703619      12.54582952      16.80781353
Pd       2.47584945       1.76427055      16.66654223
Pd       4.46643252       4.25738713      16.57250341
Pd      11.81203468       3.22997343      16.47807693
Pd       4.00731622      10.89349632      14.26701187
Pd       6.67318527       7.00278132      16.61717717
Pd       8.11439483       1.04011899      17.98451286
Pd       9.68771448       7.16118358      15.92839560
Pd       8.06012780       4.07395880      16.41410593
Pd       0.47725099      12.73445181      16.23346020
Pd       3.32918435       6.67306303      16.01685744
O        9.81045593       3.12607678      16.83347860
O       10.15210403      10.61583801      16.24133322
O       12.45641367      11.91133044      16.22825662
O       12.12895078       1.33187508      17.09540212
O       10.92806007       0.70675260      17.32119584
O        4.93776445       7.96715021      16.09791108
O        4.91435298       1.26099929      14.94394271
O        2.28265318      13.56767981      16.14756693
O        8.79826853      12.96297834      17.68731165
O        3.70234216      10.88733446      16.25004107
O        4.00629775       0.89944695      17.73611144
O        2.72095751       3.63541143      17.21433221
O        8.40111613       6.12008132      17.06053705
O        6.92507764       8.82898178      17.42514815
O        6.22323326       5.06960218      16.04022814
O        0.01261521       3.14906091      16.03445134
O       11.46548884       5.10835306      15.95180036
O       13.45236138       8.41502604      16.13551463
O        7.31723990       2.85174401      18.13628900
O        5.70333085      11.78187751      17.50497557
