115
Lattice="13.75323 0.0 0.0 0.0 13.75323 0.0 0.0 0.0 23.89" Properties=species:S:1:pos:R:3 entry_id=3 rank=34 energy=-571.2864990234375 parent_id=1 pbc="T T F"
Pd       0.00000000       0.00000000      10.00000000
Pd       2.75064538       0.00000000      10.00000000
Pd       5.50129076       0.00000000      10.00000000
Pd       8.25193614       0.00000000      10.00000000
Pd      11.00258152       0.00000000      10.00000000
Pd       0.00000000       2.75064538      10.00000000
Pd       2.75064538       2.75064538      10.00000000
Pd       5.50129076       2.75064538      10.00000000
Pd       8.25193614       2.75064538      10.00000000
Pd      11.00258152       2.75064538      10.00000000
Pd       0.00000000       5.50129076      10.00000000
Pd       2.75064538       5.50129076      10.00000000
Pd       5.50129076       5.50129076      10.00000000
Pd       8.25193614       5.50129076      10.00000000
Pd      11.00258152       5.50129076      10.00000000
Pd       0.00000000       8.25193614      10.00000000
Pd       2.75064538       8.25193614      10.00000000
Pd       5.50129076       8.25193614      10.00000000
Pd       8.25193614       8.25193614      10.00000000
Pd      11.00258152       8.25193614      10.00000000
Pd       0.00000000      11.00258152      10.00000000
Pd       2.75064538      11.00258152      10.00000000
Pd       5.50129076      11.00258152      10.00000000
Pd       8.25193614      11.00258152      10.00000000
Pd      11.00258152      11.00258152      10.00000000
Pd       1.31774876       1.40004255      12.04880264
Pd       4.07811656       1.39904159      11.93783072
Pd       6.82987289       1.37911816      11.91990625
Pd       9.57512057       1.39592898      11.89594876
Pd      12.38684272       1.37174114      11.92044161
Pd       1.37667986       4.11037558      12.00881906
Pd       4.09043331       4.15971638      11.96977427
Pd       6.82961785       4.15184823      11.95820491
Pd       9.56728621       4.13975942      11.94281254
Pd      12.36578195       4.13265160      11.93417299
Pd       1.37110082       6.89256210      11.94010419
Pd       4.13935064       6.87026939      11.96482277
Pd       6.87097415       6.85831372      11.95140951
Pd       9.64205429       6.82915781      11.94515418
Pd      12.39111484       6.85622887      11.94896407
Pd       1.36502132       9.67859033      11.98996617
Pd       4.11777592       9.66324146      11.95099537
Pd       6.89476706       9.64088005      11.95142944
Pd       9.64982872       9.59779534      11.89439304
Pd      12.42487279       9.60955999      11.94161946
Pd       1.33071293      12.43878264      12.00297815
Pd       4.08232620      12.38498521      11.97815511
Pd       6.86816975      12.39901143      11.97280504
Pd       9.63028672      12.36702810      11.91406436
Pd      12.37866281      12.35200120      11.97142904
Pd      13.65827461      13.69805121      14.12915392
Pd       2.68682303       0.10911509      14.03696263
Pd       5.50518365      13.72756100      13.96479112
Pd       8.22923599       0.03537834      13.87050355
Pd      10.95367304       0.02468626      13.83563277
Pd      13.69005580       2.68851841      14.09646375
Pd       2.69834846       2.85563758      14.10216518
Pd       5.53912782       2.76312059      13.87448078
Pd       8.24003760       2.77144165      13.86368817
Pd      11.00427738       2.73462026      13.83949552
Pd       0.05233283       5.41053124      13.97646255
Pd       2.75751425       5.59245348      14.01065657
Pd       5.52113601       5.57825224      14.10595223
Pd       8.23604447       5.52366787      13.94292972
Pd      11.03456111       5.40741534      13.92770689
Pd       0.10662982       8.18689389      13.96553466
Pd       2.78619554       8.34443189      13.92851741
Pd       5.53422311       8.25789720      13.98799147
Pd       8.27268730       8.33252916      13.97521964
Pd      11.03344490       8.20053746      13.95591660
Pd      13.61973598      10.96234237      14.10442067
Pd       2.57254447      11.16276375      14.00314939
Pd       5.38885741      10.96558074      13.93911780
Pd       8.23511464      11.13481709      14.46050580
Pd      10.85651977      10.96109119      13.87799434
Pd      12.51223916       6.56922589      16.08147845
Pd       9.32632314       9.38920622      16.37137476
Pd       2.41402209      13.12534943      16.62239361
Pd       1.38279191       6.19137735      16.38136202
Pd      12.50774826       9.28126288      16.05770379
Pd       9.54264701       1.46897467      15.70022160
Pd       4.74728050       1.46323897      16.96143048
Pd       6.00709709       9.36893290      16.57556593
Pd       5.06252595      12.43152547      16.33491619
Pd      10.82214122      12.48945227      16.26252298
Pd       1.35195665       2.52392855      16.68397497
Pd       3.92630600       4.26695920      16.28063451
Pd      11.47110292       3.23724440      16.60729108
Pd       3.55515011       9.89154015      16.10329767
Pd       6.77187035       6.67997997      16.51689967
Pd       7.54420085      13.74997099      16.53406348
Pd       9.76333185       6.80796320      15.94134932
Pd       7.57982446       3.47459257      16.47093674
Pd      13.65511474       0.20702932      17.00044139
Pd       3.93135023       7.09165297      15.98448964
O        9.46900194       2.95411895      17.05421176
O       10.94792658      10.48410475      15.93454124
O       12.82388855      12.64825097      15.82698333
O       11.79768936       1.34312495      17.38114115
O       10.63682314       0.54223276      17.20236001
O        5.28601616       7.70513581      17.34313631
O        4.23511822       1.43698350      14.90210831
O        0.53257857       1.52907791      18.16521993
O        8.79454527      12.23318380      16.25517713
O        2.10586807      11.29551377      16.01802413
O        2.84283791       1.18775635      17.24729881
O        2.15310069       4.49301549      17.00003041
O        8.17133079       5.37465002      16.01415176
O        7.81609456       8.47448202      17.14618903
O        5.76595235       4.01572473      15.58163818
O       13.41839189       3.41402886      15.98612477
O       11.14132037       5.15292473      16.02188333
O        0.25588024       7.90621796      16.08217784
O        6.69620770       1.70635475      17.04336212
O        6.48469525      11.06355013      15.71424156
