115
Lattice="13.75323 0.0 0.0 0.0 13.75323 0.0 0.0 0.0 23.89" Properties=species:S:1:pos:R:3 entry_id=13 rank=23 energy=-572.0146484375 parent_id=2 pbc="T T F"
Pd       0.00000000       0.00000000      10.00000000
Pd       2.75064538       0.00000000      10.00000000
Pd       5.50129076       0.00000000      10.00000000
Pd       8.25193614       0.00000000      10.00000000
Pd      11.00258152       0.00000000      10.00000000
Pd       0.00000000       2.75064538      10.00000000
Pd       2.75064538       2.75064538      10.00000000
Pd       5.50129076       2.75064538      10.00000000
Pd       8.25193614       2.75064538      10.00000000
Pd      11.00258152       2.75064538      10.00000000
Pd       0.00000000       5.50129076      10.00000000
Pd       2.75064538       5.50129076      10.00000000
Pd       5.50129076       5.50129076      10.00000000
Pd       8.25193614       5.50129076      10.00000000
Pd      11.00258152       5.50129076      10.00000000
Pd       0.00000000       8.25193614      10.00000000
Pd       2.75064538       8.25193614      10.00000000
Pd       5.50129076       8.25193614      10.00000000
Pd       8.25193614       8.25193614      10.00000000
Pd      11.00258152       8.25193614      10.00000000
Pd       0.00000000      11.00258152      10.00000000
Pd       2.75064538      11.00258152      10.00000000
Pd       5.50129076      11.00258152      10.00000000
Pd       8.25193614      11.00258152      10.00000000
Pd      11.00258152      11.00258152      10.00000000
Pd       1.38119116       1.35838118      11.99361233
Pd       4.11341035       1.32525752      11.96483888
Pd       6.84719780       1.34441901      12.05947461
Pd       9.57512057       1.39592898      11.89594876
Pd      12.38684272       1.37174114      11.92044161
Pd       1.35864223       4.07322810      11.97356265
Pd       4.13634580       4.10455639      11.94366513
Pd       6.85318915       4.14414910      12.02377448
Pd       9.56728621       4.13975942      11.94281254
Pd      12.36578195       4.13265160      11.93417299
Pd       1.37110082       6.89256210      11.94010419
Pd       4.13935064       6.87026939      11.96482277
Pd       6.87097415       6.85831372      11.95140951
Pd       9.64205429       6.82915781      11.94515418
Pd      12.39111484       6.85622887      11.94896407
Pd       1.37332561       9.63078988      11.96585448
Pd       4.11777592       9.66324146      11.95099537
Pd       6.89476706       9.64088005      11.95142944
Pd       9.64982872       9.59779534      11.89439304
Pd      12.42487279       9.60955999      11.94161946
Pd       1.36717063      12.35318428      11.95191626
Pd       4.10507308      12.34947579      11.97947932
Pd       6.86816975      12.39901143      11.97280504
Pd       9.63028672      12.36702810      11.91406436
Pd      12.36164700      12.34992992      11.89898623
Pd      13.68368721      13.71603414      13.86496849
Pd       2.66191763      13.55060941      14.04692128
Pd       5.47233243      13.33524364      14.13401893
Pd       8.29943410      13.49146283      14.02403274
Pd      10.98482462      13.63685741      13.93556550
Pd      13.74230531       2.72050748      14.05220467
Pd       2.72152106       2.71070496      14.07180834
Pd       5.45077401       2.81909970      13.97592715
Pd       8.27431534       2.80233978      13.92237373
Pd      11.02098132       2.68220745      13.84509519
Pd       0.03244161       5.57478206      13.91069675
Pd       2.74289744       5.46347677      13.81000243
Pd       5.50312648       5.54860014      14.12072162
Pd       8.25649420       5.59360224      14.07949703
Pd      10.98758611       5.43774346      14.00056930
Pd       0.06959529       8.48175408      14.11405054
Pd       2.76272056       8.33737008      13.93744179
Pd       5.51002197       8.35821753      14.02460817
Pd       8.26019475       8.40367609      13.97851330
Pd      11.04913571       8.34334046      13.84188883
Pd      12.45632502      11.17265014      14.26342639
Pd       1.40720746      10.98220045      14.30184849
Pd       6.85241323      10.88005640      14.29073376
Pd       7.27518082      12.39622389      16.38597637
Pd       9.69379536      10.98542869      14.20476401
Pd      12.56436498       6.66840428      16.05364116
Pd       8.42541742       9.69123830      16.54673203
Pd       3.95044728      12.72196937      16.84874843
Pd       1.41291885       4.62676973      15.95297750
Pd      11.76416294       9.42128510      16.23339034
Pd       9.59788737       1.41894798      15.77573703
Pd       5.48752383       1.95615667      17.77643617
Pd       5.20355922       9.79643817      16.84213836
Pd       6.84578953       1.31014743      15.62206990
Pd      10.58587970      12.51783753      16.81679871
Pd       2.28283404       1.73851669      16.74119588
Pd       4.30824577       4.18661425      16.64340247
Pd      11.80379599       3.20169825      16.50014882
Pd       4.07572946      10.85586616      14.30255518
Pd       6.47560843       6.96914540      16.57668823
Pd       8.06779846       0.94764938      17.95708819
Pd       9.88463328       7.40580708      16.00778524
Pd       7.94913723       4.00526909      16.54488411
Pd       0.42296982      12.68909260      16.23925719
Pd       3.43685235       6.69833950      15.91022706
O        9.77712199       3.11498329      16.86731103
O       10.13574929      10.61073795      16.22708783
O       12.42991328      11.84087239      16.25318834
O       12.11881799       1.31171656      17.14222218
O       10.91434306       0.67895450      17.35001960
O        4.66915752       7.78133359      16.98134431
O        4.23793598       1.25087146      14.60825273
O        2.18675934      13.55375762      16.14713417
O        8.77999125      12.89075339      17.67752930
O        3.58806472      10.82612498      16.26150792
O        3.91284219       0.87019624      17.64524370
O        2.55727513       3.60091760      17.29747565
O        8.31681849       6.13457990      16.15324428
O        6.89074047       8.81111810      17.30610911
O        6.06826642       4.96865525      16.16103655
O        0.02699785       3.08005696      16.06252323
O       11.46540200       5.07764455      15.95379766
O       13.43686682       8.39372962      16.14378130
O        7.24898337       2.75402262      18.08494114
O        5.64653195      11.74378566      17.37111280
