115
Lattice="13.75323 0.0 0.0 0.0 13.75323 0.0 0.0 0.0 23.89" Properties=species:S:1:pos:R:3 entry_id=23 rank=13 energy=-572.2891845703125 parent_id=21 pbc="T T F"
Pd       0.00000000       0.00000000      10.00000000
Pd       2.75064538       0.00000000      10.00000000
Pd       5.50129076       0.00000000      10.00000000
Pd       8.25193614       0.00000000      10.00000000
Pd      11.00258152       0.00000000      10.00000000
Pd       0.00000000       2.75064538      10.00000000
Pd       2.75064538       2.75064538      10.00000000
Pd       5.50129076       2.75064538      10.00000000
Pd       8.25193614       2.75064538      10.00000000
Pd      11.00258152       2.75064538      10.00000000
Pd       0.00000000       5.50129076      10.00000000
Pd       2.75064538       5.50129076      10.00000000
Pd       5.50129076       5.50129076      10.00000000
Pd       8.25193614       5.50129076      10.00000000
Pd      11.00258152       5.50129076      10.00000000
Pd       0.00000000       8.25193614      10.00000000
Pd       2.75064538       8.25193614      10.00000000
Pd       5.50129076       8.25193614      10.00000000
Pd       8.25193614       8.25193614      10.00000000
Pd      11.00258152       8.25193614      10.00000000
Pd       0.00000000      11.00258152      10.00000000
Pd       2.75064538      11.00258152      10.00000000
Pd       5.50129076      11.00258152      10.00000000
Pd       8.25193614      11.00258152      10.00000000
Pd      11.00258152      11.00258152      10.00000000
Pd       1.35731413       1.40661386      11.97764040
Pd       4.09124078       1.36767966      11.96152441
Pd       6.83614082       1.32639571      12.06186765
Pd       9.57512057       1.39592898      11.89594876
Pd      12.38684272       1.37174114      11.92044161
Pd       1.35809896       4.12332519      11.95785766
Pd       4.10797120       4.13825221      11.94097520
Pd       6.84171812       4.11138328      11.97507316
Pd       9.56728621       4.13975942      11.94281254
Pd      12.36578195       4.13265160      11.93417299
Pd       1.37110082       6.89256210      11.94010419
Pd       4.13935064       6.87026939      11.96482277
Pd       6.87097415       6.85831372      11.95140951
Pd       9.64205429       6.82915781      11.94515418
Pd      12.39111484       6.85622887      11.94896407
Pd       1.39306456       9.67227259      11.98914097
Pd       4.11777592       9.66324146      11.95099537
Pd       6.89476706       9.64088005      11.95142944
Pd       9.64982872       9.59779534      11.89439304
Pd      12.42487279       9.60955999      11.94161946
Pd       1.39465874      12.39151446      12.00854486
Pd       4.12607973      12.39695615      11.93465041
Pd       6.86816975      12.39901143      11.97280504
Pd       9.63028672      12.36702810      11.91406436
Pd      12.35049000      12.32099028      12.00908969
Pd      13.69395099       0.01346995      13.91483046
Pd       2.69871402       0.11837352      14.01432048
Pd       5.41568041      12.86699525      14.25295666
Pd       8.31983031      13.43471178      14.04137398
Pd      10.99567560      13.69541994      13.94895729
Pd      13.70651007       2.73635562      14.06013080
Pd       2.65062161       2.87490301      14.04035643
Pd       5.34654086       2.84086840      13.94955941
Pd       8.21070191       2.79064931      13.91930063
Pd      10.99487397       2.71871723      13.84537674
Pd       0.01701340       5.52343413      13.89762407
Pd       2.77896000       5.53731732      13.90752378
Pd       5.54353440       5.53042055      14.00598600
Pd       8.28479752       5.55770783      13.99316625
Pd      11.00683825       5.46201709      14.03460228
Pd       0.04901646       8.28351453      13.97832609
Pd       2.76178088       8.29409381      13.90651007
Pd       5.50033270       8.38745386      13.98101730
Pd       8.26452505       8.34624258      13.96050795
Pd      11.02860425       8.30399243      13.95335421
Pd       0.01201473      11.03340962      14.00713752
Pd       1.60325254       9.72529823      16.02917174
Pd       7.12208413      10.83188495      14.29747639
Pd       7.12504478      12.39075293      16.52265355
Pd      10.00627351      11.01363657      14.11432789
Pd      12.71176234       6.85428038      16.04669986
Pd       8.46807611       9.76720500      16.47769581
Pd       3.68226358      12.78633323      16.72286618
Pd       1.30786453       4.87473790      16.07372820
Pd      11.98658462       9.79870264      16.00889434
Pd       9.55567033       1.48024125      15.75089107
Pd       5.37521806       2.07895655      17.59134526
Pd       5.13033765       9.92991127      16.55901509
Pd       6.68834425       1.18216092      15.49326302
Pd      10.60558244      12.60375771      16.84512023
Pd       2.13423767       1.88432208      16.63649494
Pd       4.32286809       4.36264614      16.47045720
Pd      11.85293515       3.30846006      16.47479924
Pd       2.99714419      11.07803467      13.99856269
Pd       6.60198771       7.08465102      16.51793866
Pd       7.95798272       1.10201471      17.82586302
Pd       9.67965125       7.15219054      15.91203525
Pd       8.01021182       4.15904349      16.36388047
Pd       0.30846098      12.57908157      16.28100396
Pd       3.08422450       6.88917616      16.14867727
O        9.80348413       3.22996875      16.74704291
O       10.18289471      10.72347948      16.12945622
O       12.43147023      11.71541866      16.81253909
O       12.10354260       1.41572907      17.12434891
O       10.90282986       0.78835191      17.34104547
O        4.83731662       7.98593928      15.98086257
O        4.68754560       0.99975209      14.61806221
O        1.95994138      13.66007807      16.03875960
O        8.72974820      13.05757325      17.54354704
O        3.30526484      10.80281674      16.04712869
O        3.77633378       0.98577371      17.45186938
O        2.59476558       3.73685798      17.17873690
O        8.32096063       6.20228000      17.01766262
O        6.83065598       8.98469512      17.17692675
O        6.13020438       5.14152446      16.00676902
O        0.12476776       3.11806514      16.08265683
O       11.59817470       5.24713625      15.98925974
O       13.64152783       8.66982435      16.11594986
O        7.12508893       2.89133634      17.92814823
O        5.35566933      11.79617232      17.26013338
