115
Lattice="13.75323 0.0 0.0 0.0 13.75323 0.0 0.0 0.0 23.89" Properties=species:S:1:pos:R:3 entry_id=20 rank=19 energy=-572.1021728515625 parent_id=19 pbc="T T F"
Pd       0.00000000       0.00000000      10.00000000
Pd       2.75064538       0.00000000      10.00000000
Pd       5.50129076       0.00000000      10.00000000
Pd       8.25193614       0.00000000      10.00000000
Pd      11.00258152       0.00000000      10.00000000
Pd       0.00000000       2.75064538      10.00000000
Pd       2.75064538       2.75064538      10.00000000
Pd       5.50129076       2.75064538      10.00000000
Pd       8.25193614       2.75064538      10.00000000
Pd      11.00258152       2.75064538      10.00000000
Pd       0.00000000       5.50129076      10.00000000
Pd       2.75064538       5.50129076      10.00000000
Pd       5.50129076       5.50129076      10.00000000
Pd       8.25193614       5.50129076      10.00000000
Pd      11.00258152       5.50129076      10.00000000
Pd       0.00000000       8.25193614      10.00000000
Pd       2.75064538       8.25193614      10.00000000
Pd       5.50129076       8.25193614      10.00000000
Pd       8.25193614       8.25193614      10.00000000
Pd      11.00258152       8.25193614      10.00000000
Pd       0.00000000      11.00258152      10.00000000
Pd       2.75064538      11.00258152      10.00000000
Pd       5.50129076      11.00258152      10.00000000
Pd       8.25193614      11.00258152      10.00000000
Pd      11.00258152      11.00258152      10.00000000
Pd       1.37655861       1.37494454      11.99655823
Pd       4.10532632       1.34138318      11.99156435
Pd       6.84100962       1.32436147      12.05458038
Pd       9.57512057       1.39592898      11.89594876
Pd      12.38684272       1.37174114      11.92044161
Pd       1.35992506       4.10452880      11.96563665
Pd       4.11646982       4.11889722      11.93677316
Pd       6.84475469       4.11895672      11.97541974
Pd       9.56728621       4.13975942      11.94281254
Pd      12.36578195       4.13265160      11.93417299
Pd       1.37110082       6.89256210      11.94010419
Pd       4.13935064       6.87026939      11.96482277
Pd       6.87097415       6.85831372      11.95140951
Pd       9.64205429       6.82915781      11.94515418
Pd      12.39111484       6.85622887      11.94896407
Pd       1.38601410       9.68284289      12.02509043
Pd       4.11777592       9.66324146      11.95099537
Pd       6.89476706       9.64088005      11.95142944
Pd       9.64982872       9.59779534      11.89439304
Pd      12.42487279       9.60955999      11.94161946
Pd       1.36775395      12.34071735      12.03766895
Pd       4.10817752      12.37541610      11.94982758
Pd       6.86816975      12.39901143      11.97280504
Pd       9.63028672      12.36702810      11.91406436
Pd      12.37057968      12.36237566      11.89802466
Pd      13.70230823       0.02273863      13.90471394
Pd       2.70880900      13.70375461      14.00668898
Pd       5.44680196      13.02970596      14.24298137
Pd       8.30705961      13.40663049      14.06395853
Pd      11.00098244      13.63435714      13.92769539
Pd      13.72097493       2.75438762      14.06428516
Pd       2.67874282       2.78098310      14.04591697
Pd       5.39040992       2.85456542      13.94357481
Pd       8.23834946       2.78443730      13.89950220
Pd      11.00772627       2.69547535      13.84039114
Pd       0.05216359       5.56823037      13.90729540
Pd       2.80321447       5.48944427      13.87603434
Pd       5.55399517       5.54700279      14.02241156
Pd       8.28953054       5.54350854      14.00459567
Pd      11.02295610       5.45433335      14.00370252
Pd       0.02492785       8.41499618      14.00653304
Pd       2.73236918       8.27414917      13.92230664
Pd       5.46085226       8.39389967      14.00963217
Pd       8.24204948       8.34483523      13.99014775
Pd      11.00831242       8.30837392      13.92853444
Pd      12.68303298      11.17793542      14.20554351
Pd       1.68161999       9.68827531      16.06325187
Pd       6.95066971      10.81118748      14.33227671
Pd       7.25674581      12.32847479      16.51770559
Pd       9.83376924      10.95675436      14.18693323
Pd      12.71882652       6.83135731      16.04277190
Pd       8.48996115       9.66283490      16.53862889
Pd       3.90806190      12.66122218      16.84965378
Pd       1.39666192       4.72347621      16.01345961
Pd      11.91566451       9.51894721      16.20784106
Pd       9.55844310       1.43289825      15.73418472
Pd       5.51698896       1.96214306      17.80878746
Pd       5.22712334       9.80991271      16.69844158
Pd       6.80661981       1.25790326      15.62145453
Pd      10.66515939      12.54143506      16.73815721
Pd       2.45730632       1.73713095      16.60770268
Pd       4.38270579       4.26676227      16.51490446
Pd      11.75828773       3.35745730      16.46376802
Pd       3.56000256      10.95450202      14.15628853
Pd       6.65091664       6.98271067      16.56208454
Pd       8.10239210       1.00557977      17.92755548
Pd       9.71657335       7.10263502      15.92678020
Pd       8.00471091       4.06709774      16.39079521
Pd       0.57054638      12.50496026      16.14580380
Pd       3.15783425       6.78525487      16.12293892
O        9.77158411       3.16424153      16.79345789
O       10.20630824      10.59162228      16.21065507
O       12.53331603      11.73877409      16.23415640
O       12.11696649       1.43230044      17.02722201
O       10.95629270       0.74159813      17.23959358
O        4.89770924       7.89987473      16.03463709
O        4.92060713       1.12779548      14.86178470
O        2.26154793      13.52440419      16.06136994
O        8.85670819      12.95771274      17.60434503
O        3.42974325      10.69898380      16.18801722
O        3.96563273       0.81889808      17.67024749
O        2.65989411       3.60926688      17.18062400
O        8.37208783       6.10482879      17.03220432
O        6.89809977       8.84710631      17.29160062
O        6.16464521       5.05796040      16.02232348
O       13.69896892       3.27165717      16.02864848
O       11.47789214       5.31165615      16.01101940
O       13.70297976       8.61388437      16.13420499
O        7.25885736       2.79854014      18.07755999
O        5.55266464      11.66232753      17.40139645
