115
Lattice="13.75323 0.0 0.0 0.0 13.75323 0.0 0.0 0.0 23.89" Properties=species:S:1:pos:R:3 entry_id=33 rank=10 energy=-573.3998413085938 parent_id=32 pbc="T T F"
Pd       0.00000000       0.00000000      10.00000000
Pd       2.75064538       0.00000000      10.00000000
Pd       5.50129076       0.00000000      10.00000000
Pd       8.25193614       0.00000000      10.00000000
Pd      11.00258152       0.00000000      10.00000000
Pd       0.00000000       2.75064538      10.00000000
Pd       2.75064538       2.75064538      10.00000000
Pd       5.50129076       2.75064538      10.00000000
Pd       8.25193614       2.75064538      10.00000000
Pd      11.00258152       2.75064538      10.00000000
Pd       0.00000000       5.50129076      10.00000000
Pd       2.75064538       5.50129076      10.00000000
Pd       5.50129076       5.50129076      10.00000000
Pd       8.25193614       5.50129076      10.00000000
Pd      11.00258152       5.50129076      10.00000000
Pd       0.00000000       8.25193614      10.00000000
Pd       2.75064538       8.25193614      10.00000000
Pd       5.50129076       8.25193614      10.00000000
Pd       8.25193614       8.25193614      10.00000000
Pd      11.00258152       8.25193614      10.00000000
Pd       0.00000000      11.00258152      10.00000000
Pd       2.75064538      11.00258152      10.00000000
Pd       5.50129076      11.00258152      10.00000000
Pd       8.25193614      11.00258152      10.00000000
Pd      11.00258152      11.00258152      10.00000000
Pd       1.34886099       1.40502272      11.98714529
Pd       4.10340657       1.37129613      11.93255215
Pd       6.83401335       1.36719307      11.94100086
Pd       9.57512057       1.39592898      11.89594876
Pd      12.38684272       1.37174114      11.92044161
Pd       1.33816973       4.11859578      12.02609966
Pd       4.06160482       4.11597092      11.98361581
Pd       6.80140573       4.13898454      11.95197268
Pd       9.56728621       4.13975942      11.94281254
Pd      12.36578195       4.13265160      11.93417299
Pd       1.37110082       6.89256210      11.94010419
Pd       4.13935064       6.87026939      11.96482277
Pd       6.87097415       6.85831372      11.95140951
Pd       9.64205429       6.82915781      11.94515418
Pd      12.39111484       6.85622887      11.94896407
Pd       1.39760006       9.61497313      11.98313046
Pd       4.11777592       9.66324146      11.95099537
Pd       6.89476706       9.64088005      11.95142944
Pd       9.64982872       9.59779534      11.89439304
Pd      12.42487279       9.60955999      11.94161946
Pd       1.38891420      12.39137647      11.97306084
Pd       4.14380461      12.35305168      11.99755944
Pd       6.86816975      12.39901143      11.97280504
Pd       9.63028672      12.36702810      11.91406436
Pd      12.39018409      12.40468526      11.97355953
Pd       0.00754586       0.05761477      14.02432939
Pd       2.73276799      13.69466392      13.93499650
Pd       5.53574806      10.97315453      14.08982731
Pd       8.25738812       0.01623544      13.92231061
Pd      10.98303922      13.72241798      14.02327351
Pd      13.64813429       2.80671897      14.05690546
Pd       2.65629204       2.77707723      14.08037591
Pd       5.48403559       2.76985241      13.95353466
Pd       8.17548352       2.83113231      13.84654446
Pd      10.95690867       2.69704940      13.84833593
Pd      13.65750062       5.60650409      13.94419834
Pd       2.62875358       5.47524967      14.05150257
Pd       5.38722935       5.51248911      13.96990078
Pd       8.15794392       5.54279246      13.96005959
Pd      10.89317150       5.41666889      14.02673254
Pd      13.73818462       8.29833844      13.99038925
Pd       2.86334352       8.21632866      13.97212586
Pd       5.57044653       8.29141755      13.93666331
Pd       8.23430074       8.30005442      13.91008172
Pd      10.97289094       8.19024692      13.95976624
Pd      13.72992663      11.04621827      13.94353742
Pd       0.35377934       9.74301432      16.30803994
Pd       8.31605476      11.03936948      13.94839451
Pd       5.91950149      12.13039462      16.63100934
Pd      11.05507276      10.99588090      13.89645569
Pd      12.23462885       6.91004620      16.18649799
Pd       7.22591876       9.74240831      16.24084235
Pd       2.45019763      12.65410991      16.59680298
Pd       0.55573409       4.75305093      16.29788429
Pd      10.74461902       9.58577938      16.25712092
Pd       9.32727601       1.62267378      15.74858139
Pd       4.39001247       1.77027517      16.83277913
Pd       3.87275467       9.78068650      16.50551316
Pd       5.53465961      13.67857278      14.04461397
Pd       9.59526769      12.49843523      16.63612290
Pd       1.19681441       1.78349546      16.69672856
Pd       3.49278369       4.32872207      16.49079502
Pd      11.29385748       3.19917168      16.62080570
Pd       2.73530553      10.96459129      13.98880620
Pd       5.57991300       7.08238139      16.45337185
Pd       6.93048064       0.87915792      16.34253620
Pd       9.30691021       7.06951647      15.94502268
Pd       7.25180164       4.34217518      16.36978465
Pd      12.82097427      12.43389561      16.25956598
Pd       1.47809386       7.14592270      15.99107712
O        9.13436709       3.36405134      16.76943496
O        8.99825074      10.62790762      15.90675836
O       11.28212791      11.50489552      16.93606442
O       11.38610847       1.27619676      17.36674845
O       10.12669113       0.68326004      17.39896003
O        3.49978145       7.85114666      16.01434353
O        4.03257220       1.30020922      14.82894518
O        0.66930179      13.61346089      16.03971910
O        7.67081051      12.95907899      16.92621088
O        2.08858437      10.69617393      15.98510638
O        2.78074310       0.75549723      17.36174707
O        1.85515324       3.59353396      17.30304133
O        7.58651322       6.31214961      16.74925094
O        5.63693239       8.95428351      17.06356848
O        5.30195310       5.15416793      16.01519151
O       13.29604623       2.90825124      16.13225178
O       11.40073836       5.11353486      15.96129467
O       12.47501814       8.77424189      16.81059843
O        6.11042544       2.62850827      16.05746481
O        4.11567225      11.64972071      17.16575569
