115
Lattice="13.75323 0.0 0.0 0.0 13.75323 0.0 0.0 0.0 23.89" Properties=species:S:1:pos:R:3 entry_id=4 rank=32 energy=-571.3501586914062 parent_id=3 pbc="T T F"
Pd       0.00000000       0.00000000      10.00000000
Pd       2.75064538       0.00000000      10.00000000
Pd       5.50129076       0.00000000      10.00000000
Pd       8.25193614       0.00000000      10.00000000
Pd      11.00258152       0.00000000      10.00000000
Pd       0.00000000       2.75064538      10.00000000
Pd       2.75064538       2.75064538      10.00000000
Pd       5.50129076       2.75064538      10.00000000
Pd       8.25193614       2.75064538      10.00000000
Pd      11.00258152       2.75064538      10.00000000
Pd       0.00000000       5.50129076      10.00000000
Pd       2.75064538       5.50129076      10.00000000
Pd       5.50129076       5.50129076      10.00000000
Pd       8.25193614       5.50129076      10.00000000
Pd      11.00258152       5.50129076      10.00000000
Pd       0.00000000       8.25193614      10.00000000
Pd       2.75064538       8.25193614      10.00000000
Pd       5.50129076       8.25193614      10.00000000
Pd       8.25193614       8.25193614      10.00000000
Pd      11.00258152       8.25193614      10.00000000
Pd       0.00000000      11.00258152      10.00000000
Pd       2.75064538      11.00258152      10.00000000
Pd       5.50129076      11.00258152      10.00000000
Pd       8.25193614      11.00258152      10.00000000
Pd      11.00258152      11.00258152      10.00000000
Pd       1.32018627       1.41227178      12.03569064
Pd       4.08031564       1.40420259      11.92323894
Pd       6.83339014       1.39058972      11.92875170
Pd       9.57512057       1.39592898      11.89594876
Pd      12.38684272       1.37174114      11.92044161
Pd       1.37970500       4.11634285      12.00328907
Pd       4.09740061       4.15624576      11.97975346
Pd       6.82924585       4.15430059      11.97838575
Pd       9.56728621       4.13975942      11.94281254
Pd      12.36578195       4.13265160      11.93417299
Pd       1.37110082       6.89256210      11.94010419
Pd       4.13935064       6.87026939      11.96482277
Pd       6.87097415       6.85831372      11.95140951
Pd       9.64205429       6.82915781      11.94515418
Pd      12.39111484       6.85622887      11.94896407
Pd       1.34145531       9.68588483      11.99017593
Pd       4.11777592       9.66324146      11.95099537
Pd       6.89476706       9.64088005      11.95142944
Pd       9.64982872       9.59779534      11.89439304
Pd      12.42487279       9.60955999      11.94161946
Pd       1.32925005      12.44407384      11.98980967
Pd       4.10491988      12.39383569      11.95835935
Pd       6.86816975      12.39901143      11.97280504
Pd       9.63028672      12.36702810      11.91406436
Pd      12.39473054      12.32624749      12.00431190
Pd      13.68984355      13.74386303      14.10658472
Pd       2.70908721       0.11806768      13.98397011
Pd       5.52470933      13.74640990      13.96754172
Pd       8.24848725       0.01710570      13.84299035
Pd      10.97703776       0.00825873      13.83430588
Pd      13.68287204       2.72271644      14.07531805
Pd       2.70245660       2.88292688      14.10877045
Pd       5.52262486       2.80755561      13.91913673
Pd       8.21236487       2.78125849      13.88782103
Pd      10.98969896       2.71744762      13.83582237
Pd       0.04715040       5.44205182      13.95038438
Pd       2.74814393       5.60599862      14.00094403
Pd       5.49173020       5.50696286      14.09677581
Pd       8.22014231       5.52680704      13.98118534
Pd      11.02547657       5.38760760      13.92535619
Pd       0.09763350       8.23135270      13.99055393
Pd       2.77070251       8.36411271      13.89884706
Pd       5.53314848       8.23289867      13.99830540
Pd       8.28004134       8.31705529      13.95264434
Pd      11.04596332       8.19093553      13.91464197
Pd      13.66064421      11.01124267      14.36484821
Pd       2.65573394      11.17043678      13.92353030
Pd       5.41205229      10.95716806      13.93135403
Pd       8.17463156      11.10606888      14.41667298
Pd      10.88355656      10.93112055      13.89666827
Pd      12.51891072       6.50278767      16.10108658
Pd       9.13052198       9.33774032      16.38158874
Pd       2.26118828      13.06722577      16.50063374
Pd       1.34231929       6.12788064      16.37025044
Pd      12.38778320       9.20489492      16.09161073
Pd       9.51044889       1.43358188      15.67865568
Pd       4.71197053       1.51338709      16.89554336
Pd       5.76716258       9.31267059      16.61523879
Pd       4.89324703      12.39814396      16.27530489
Pd      10.69027883      12.43019309      16.22463389
Pd       1.31360811       2.41887721      16.64269862
Pd       3.94940553       4.40938593      16.38054990
Pd      11.45656721       3.17591790      16.60002332
Pd       3.29936669       9.92037933      16.14523605
Pd       6.72286240       6.59955057      16.64614952
Pd       7.41782419       0.05600909      16.45012851
Pd       9.85708112       6.86092285      15.92390671
Pd       7.62190343       3.59443319      16.51919362
Pd      13.55275912       0.12936448      16.97114001
Pd       3.80921964       7.16489605      15.97058285
O        9.46295422       2.90965481      17.02005163
O       10.79098304      10.38505045      15.96645108
O       12.70595314      12.56857523      15.79546925
O       11.73507526       1.26859695      17.38487637
O       10.55968023       0.48731485      17.19894890
O        5.13915411       7.59507058      17.39012342
O        4.22230648       1.48187061      14.86660729
O        0.49093736       1.43020336      18.12586223
O        8.64932332      12.24884121      16.17781552
O        1.75091277      11.27298618      15.83189763
O        2.81606474       1.09663149      17.16269569
O        2.09922961       4.38512100      16.90449352
O        8.29419347       5.50809437      16.09159963
O        7.59037935       8.41489808      17.12400549
O        5.88369723       4.73898938      16.13443004
O       13.39447751       3.34722768      15.99049643
O       11.15569653       5.09031913      16.00692013
O        0.21127360       7.88469774      16.10490277
O        6.65049093       1.82118708      16.97095406
O        6.31541397      11.00666094      15.79895220
