115
Lattice="13.75323 0.0 0.0 0.0 13.75323 0.0 0.0 0.0 23.89" Properties=species:S:1:pos:R:3 entry_id=30 rank=4 energy=-573.6132202148438 parent_id=29 pbc="T T F"
Pd       0.00000000       0.00000000      10.00000000
Pd       2.75064538       0.00000000      10.00000000
Pd       5.50129076       0.00000000      10.00000000
Pd       8.25193614       0.00000000      10.00000000
Pd      11.00258152       0.00000000      10.00000000
Pd       0.00000000       2.75064538      10.00000000
Pd       2.75064538       2.75064538      10.00000000
Pd       5.50129076       2.75064538      10.00000000
Pd       8.25193614       2.75064538      10.00000000
Pd      11.00258152       2.75064538      10.00000000
Pd       0.00000000       5.50129076      10.00000000
Pd       2.75064538       5.50129076      10.00000000
Pd       5.50129076       5.50129076      10.00000000
Pd       8.25193614       5.50129076      10.00000000
Pd      11.00258152       5.50129076      10.00000000
Pd       0.00000000       8.25193614      10.00000000
Pd       2.75064538       8.25193614      10.00000000
Pd       5.50129076       8.25193614      10.00000000
Pd       8.25193614       8.25193614      10.00000000
Pd      11.00258152       8.25193614      10.00000000
Pd       0.00000000      11.00258152      10.00000000
Pd       2.75064538      11.00258152      10.00000000
Pd       5.50129076      11.00258152      10.00000000
Pd       8.25193614      11.00258152      10.00000000
Pd      11.00258152      11.00258152      10.00000000
Pd       1.36962598       1.39515883      11.99642552
Pd       4.10660451       1.37315762      11.97385067
Pd       6.85788060       1.36504391      11.96479272
Pd       9.57512057       1.39592898      11.89594876
Pd      12.38684272       1.37174114      11.92044161
Pd       1.38696662       4.10054708      11.99625286
Pd       4.13145864       4.11858604      11.98261690
Pd       6.85337390       4.12470374      11.97923394
Pd       9.56728621       4.13975942      11.94281254
Pd      12.36578195       4.13265160      11.93417299
Pd       1.37110082       6.89256210      11.94010419
Pd       4.13935064       6.87026939      11.96482277
Pd       6.87097415       6.85831372      11.95140951
Pd       9.64205429       6.82915781      11.94515418
Pd      12.39111484       6.85622887      11.94896407
Pd       1.37297466       9.66021610      11.98489002
Pd       4.11777592       9.66324146      11.95099537
Pd       6.89476706       9.64088005      11.95142944
Pd       9.64982872       9.59779534      11.89439304
Pd      12.42487279       9.60955999      11.94161946
Pd       1.38200735      12.38477054      12.01022294
Pd       4.09975842      12.40271188      11.98648848
Pd       6.86816975      12.39901143      11.97280504
Pd       9.63028672      12.36702810      11.91406436
Pd      12.37567906      12.34969298      11.97744960
Pd      13.66022236       0.01493910      13.93548788
Pd       2.64209376       0.02603228      14.06740693
Pd       5.51368288      10.95545095      13.94063852
Pd       8.25934335      13.74432943      13.99323825
Pd      10.97629328       0.00106494      13.93865056
Pd       0.03409970       2.75012457      14.08283578
Pd       2.78443915       2.80399109      14.09232616
Pd       5.59098142       2.78358128      13.97776339
Pd       8.29914948       2.78414590      13.92674152
Pd      11.07438991       2.75507744      13.81327371
Pd       0.00073148       5.52984807      13.89074217
Pd       2.75276883       5.50970502      13.95812703
Pd       5.51228211       5.48643342      14.02966149
Pd       8.25087812       5.53399416      13.97312765
Pd      10.98926706       5.44832466      14.03820413
Pd       0.02546809       8.27418535      14.02997038
Pd       2.73188682       8.27157648      13.88884469
Pd       5.45558914       8.22984283      14.00586384
Pd       8.21641345       8.26382731      13.94467108
Pd      11.01884776       8.24276894      13.96380935
Pd      13.74469684      11.02770484      14.05361592
Pd       1.51173475       9.62896783      16.10301128
Pd       8.24691880      11.00094205      13.88690177
Pd       6.86864034      12.03577639      15.93345626
Pd      10.94960641      11.02557221      13.91200016
Pd      12.66358476       6.77979470      16.09047356
Pd       8.43753187       9.70868113      16.33077016
Pd       3.45644003      12.76887309      16.74439142
Pd       1.17734573       4.90732269      16.12974247
Pd      11.94901246       9.71385995      16.09562988
Pd       9.74994363       1.60045046      15.74398242
Pd       5.00598388       1.88348679      16.89404173
Pd       5.00620260       9.94337019      16.60700209
Pd       5.49160177      13.67437863      14.02504439
Pd      10.41398178      12.53404930      16.70716411
Pd       1.85829680       1.89102114      16.73857248
Pd       4.08770102       4.46974380      16.53650519
Pd      11.75197844       3.26801100      16.58576136
Pd       2.79634021      11.03000700      14.02612446
Pd       6.49851285       7.13038653      16.54469042
Pd       7.48702911       0.79867153      16.55291964
Pd       9.64370121       7.10244408      15.89923017
Pd       7.81217506       4.27497369      16.47071570
Pd       0.08431906      12.56503367      16.34048435
Pd       2.90380609       6.97716023      16.19427049
O        9.63213193       3.27814131      16.86326397
O       10.14954234      10.66083674      15.91186686
O       12.24082911      11.68500905      16.92689725
O       11.96592603       1.36658931      17.29562432
O       10.73957158       0.71935673      17.36687244
O        4.71289463       8.00059509      16.04152761
O        4.28271480       1.42314767      14.90642266
O        1.71837957      13.64897872      16.07332845
O        8.39086436      12.88749303      17.03148063
O        3.16199604      10.77672564      16.08382172
O        3.46511722       0.91186218      17.55020088
O        2.40033125       3.75912715      17.28313451
O        8.25057707       6.18370883      17.00644181
O        6.78726550       9.02635074      17.12857524
O        5.93251966       5.22271445      16.07743752
O        0.04476259       3.06169652      16.13335732
O       11.52910292       5.18671364      16.00568077
O       13.57793005       8.56993553      16.27651159
O        6.71993234       2.56813839      16.08749436
O        5.23026301      11.85039924      17.18556575
