115
Lattice="13.75323 0.0 0.0 0.0 13.75323 0.0 0.0 0.0 23.89" Properties=species:S:1:pos:R:3 entry_id=34 rank=2 energy=-575.0673828125 parent_id=31 pbc="T T F"
Pd       0.00000000       0.00000000      10.00000000
Pd       2.75064538       0.00000000      10.00000000
Pd       5.50129076       0.00000000      10.00000000
Pd       8.25193614       0.00000000      10.00000000
Pd      11.00258152       0.00000000      10.00000000
Pd       0.00000000       2.75064538      10.00000000
Pd       2.75064538       2.75064538      10.00000000
Pd       5.50129076       2.75064538      10.00000000
Pd       8.25193614       2.75064538      10.00000000
Pd      11.00258152       2.75064538      10.00000000
Pd       0.00000000       5.50129076      10.00000000
Pd       2.75064538       5.50129076      10.00000000
Pd       5.50129076       5.50129076      10.00000000
Pd       8.25193614       5.50129076      10.00000000
Pd      11.00258152       5.50129076      10.00000000
Pd       0.00000000       8.25193614      10.00000000
Pd       2.75064538       8.25193614      10.00000000
Pd       5.50129076       8.25193614      10.00000000
Pd       8.25193614       8.25193614      10.00000000
Pd      11.00258152       8.25193614      10.00000000
Pd       0.00000000      11.00258152      10.00000000
Pd       2.75064538      11.00258152      10.00000000
Pd       5.50129076      11.00258152      10.00000000
Pd       8.25193614      11.00258152      10.00000000
Pd      11.00258152      11.00258152      10.00000000
Pd       1.38669882       1.37964940      11.98304621
Pd       4.10804562       1.35984599      11.97365070
Pd       6.85053811       1.36813363      11.97648777
Pd       9.57512057       1.39592898      11.89594876
Pd      12.38684272       1.37174114      11.92044161
Pd       1.35385451       4.09636586      11.97684880
Pd       4.09396100       4.09582416      11.95590177
Pd       6.84974271       4.13881230      11.95953149
Pd       9.56728621       4.13975942      11.94281254
Pd      12.36578195       4.13265160      11.93417299
Pd       1.37110082       6.89256210      11.94010419
Pd       4.13935064       6.87026939      11.96482277
Pd       6.87097415       6.85831372      11.95140951
Pd       9.64205429       6.82915781      11.94515418
Pd      12.39111484       6.85622887      11.94896407
Pd       1.40472856       9.60620405      11.99980296
Pd       4.11777592       9.66324146      11.95099537
Pd       6.89476706       9.64088005      11.95142944
Pd       9.64982872       9.59779534      11.89439304
Pd      12.42487279       9.60955999      11.94161946
Pd       1.40818349      12.37586062      11.96677096
Pd       4.13152762      12.36610792      12.02200352
Pd       6.86816975      12.39901143      11.97280504
Pd       9.63028672      12.36702810      11.91406436
Pd      12.39304126      12.39631230      11.95534836
Pd       0.09688045       0.02771264      13.95759820
Pd       2.81882057       0.02198338      14.03561689
Pd       5.58526103       8.20448764      13.99256317
Pd       8.31566131       0.04069628      14.01086459
Pd      11.01439799       0.05834769      13.94220059
Pd      13.66855710       2.76943172      13.96203027
Pd       2.68573755       2.73020726      14.09072541
Pd       5.55298457       0.06142024      14.03458077
Pd       8.20897642       2.80073504      13.92831427
Pd      10.93866796       2.75592898      13.94773366
Pd       0.02085312       5.54819216      13.91138373
Pd       2.70618556       5.45993664      13.92218194
Pd       5.44090679       2.76127456      13.91371241
Pd       8.24183103       5.52671780      14.03726705
Pd      11.00935768       5.50879648      13.93233159
Pd      13.74624091       8.27814848      14.03914096
Pd       2.84470556       8.21940381      14.01801932
Pd       5.45639818       5.49162158      13.94693571
Pd       8.26842128       8.27503856      13.92076530
Pd      10.98654917       8.23896034      13.92881701
Pd      13.70732515      11.02846059      13.92285641
Pd       0.08927566       9.86574102      16.33935711
Pd       8.25999529      11.02753602      13.91695709
Pd       5.68656104      12.16907324      17.18370987
Pd      10.99204115      11.02128273      13.91136459
Pd      12.10018671       7.20783562      16.26111620
Pd       6.80831149       9.63549230      16.42481447
Pd       2.28788373      12.64430230      16.66693877
Pd      13.59274254       4.58205357      16.44608356
Pd      10.29437331       9.44743821      16.29605689
Pd       9.40266540       1.70917422      16.00694959
Pd       4.16596248       1.71757933      16.35571586
Pd       3.54776996       9.76345799      16.73163016
Pd       5.50816848      10.83005170      14.03074959
Pd       9.19971915      12.33222041      16.53435029
Pd       1.04052432       1.76164514      16.53870615
Pd       3.11418386       4.35529641      16.39760636
Pd       9.96273245       4.47183987      16.22663415
Pd       2.68337189      10.97707691      14.04310262
Pd       5.14115413       7.07878488      16.58479275
Pd       6.86238995       0.85763249      16.41915074
Pd       8.68328684       7.11044445      16.24785917
Pd       6.73774178       4.37575735      16.41518670
Pd      12.58954332      12.51872564      16.06638073
Pd       1.35971832       6.80959385      15.96155142
O        8.46662666       3.44850049      16.88011483
O        8.51586764      10.47481182      15.90989748
O       10.92399352      11.49281161      15.96217663
O       11.58660297       0.15675441      17.29197835
O       10.22824483       0.21715435      17.23826493
O        3.21369045       7.85394031      16.07614246
O        5.08345397      12.31849743      15.25428438
O        0.53688029      13.56762370      16.03016468
O        7.48232037      12.97561654      17.27417499
O        1.88599853      10.72560125      16.04538892
O        2.66046074       0.79414055      17.21657821
O        1.45750301       3.65186312      17.14915930
O        7.01273251       6.29284512      17.03068462
O        5.24864730       8.90024095      17.34284192
O        4.89257913       5.18497899      15.95920989
O       13.13482108       2.64062904      15.90171850
O       11.77192598       5.28997362      15.91787398
O       12.15969406       9.02410279      16.90275729
O        5.95638841       2.55816597      15.90861218
O        3.83754574      11.59505638      17.49925696
