115
Lattice="13.75323 0.0 0.0 0.0 13.75323 0.0 0.0 0.0 23.89" Properties=species:S:1:pos:R:3 entry_id=26 rank=8 energy=-573.5773315429688 parent_id=25 pbc="T T F"
Pd       0.00000000       0.00000000      10.00000000
Pd       2.75064538       0.00000000      10.00000000
Pd       5.50129076       0.00000000      10.00000000
Pd       8.25193614       0.00000000      10.00000000
Pd      11.00258152       0.00000000      10.00000000
Pd       0.00000000       2.75064538      10.00000000
Pd       2.75064538       2.75064538      10.00000000
Pd       5.50129076       2.75064538      10.00000000
Pd       8.25193614       2.75064538      10.00000000
Pd      11.00258152       2.75064538      10.00000000
Pd       0.00000000       5.50129076      10.00000000
Pd       2.75064538       5.50129076      10.00000000
Pd       5.50129076       5.50129076      10.00000000
Pd       8.25193614       5.50129076      10.00000000
Pd      11.00258152       5.50129076      10.00000000
Pd       0.00000000       8.25193614      10.00000000
Pd       2.75064538       8.25193614      10.00000000
Pd       5.50129076       8.25193614      10.00000000
Pd       8.25193614       8.25193614      10.00000000
Pd      11.00258152       8.25193614      10.00000000
Pd       0.00000000      11.00258152      10.00000000
Pd       2.75064538      11.00258152      10.00000000
Pd       5.50129076      11.00258152      10.00000000
Pd       8.25193614      11.00258152      10.00000000
Pd      11.00258152      11.00258152      10.00000000
Pd       1.35394964       1.38492705      11.98105732
Pd       4.09407385       1.36599090      11.94436705
Pd       6.86474806       1.37004298      11.97002983
Pd       9.57512057       1.39592898      11.89594876
Pd      12.38684272       1.37174114      11.92044161
Pd       1.37863310       4.10177773      11.98513786
Pd       4.13032616       4.13627295      11.95474253
Pd       6.86310694       4.12827310      11.97803552
Pd       9.56728621       4.13975942      11.94281254
Pd      12.36578195       4.13265160      11.93417299
Pd       1.37110082       6.89256210      11.94010419
Pd       4.13935064       6.87026939      11.96482277
Pd       6.87097415       6.85831372      11.95140951
Pd       9.64205429       6.82915781      11.94515418
Pd      12.39111484       6.85622887      11.94896407
Pd       1.37547096       9.65410164      11.98552896
Pd       4.11777592       9.66324146      11.95099537
Pd       6.89476706       9.64088005      11.95142944
Pd       9.64982872       9.59779534      11.89439304
Pd      12.42487279       9.60955999      11.94161946
Pd       1.37213186      12.37274274      12.00478934
Pd       4.09924173      12.39260698      11.98316092
Pd       6.86816975      12.39901143      11.97280504
Pd       9.63028672      12.36702810      11.91406436
Pd      12.36999379      12.34857261      11.97816211
Pd      13.63282658       0.00322576      13.94622801
Pd       2.60294070      13.75210072      14.03405787
Pd       5.53687386      10.98791387      13.96046741
Pd       8.23301104       0.02137227      14.02865500
Pd      10.94927018      13.75291667      13.93934383
Pd      13.74673639       2.73122153      14.07383680
Pd       2.72953857       2.81239604      14.02604964
Pd       5.55670328       2.79755210      13.92926974
Pd       8.24077164       2.79804029      13.97320576
Pd      11.02690810       2.74493303      13.83003018
Pd       0.02100035       5.51398799      13.89095929
Pd       2.77636012       5.51414717      13.93497416
Pd       5.55020965       5.48776787      14.03127596
Pd       8.28719538       5.53276334      14.00571422
Pd      11.01230471       5.44645706      14.05313877
Pd       0.03405056       8.26399268      14.02850656
Pd       2.73575975       8.26542538      13.89948014
Pd       5.46088243       8.24532520      13.99766985
Pd       8.22422410       8.26994476      13.94313328
Pd      11.03531491       8.24560887      13.93904251
Pd       0.00246317      11.01853641      14.05259660
Pd       1.54704109       9.61696185      16.10606197
Pd       8.25179641      11.01872693      13.88641183
Pd       6.92537243      12.23671985      15.90868803
Pd      10.95499768      11.02447122      13.91467668
Pd      12.71644565       6.74574974      16.09474842
Pd       8.46879877       9.73065300      16.31281577
Pd       3.55670685      12.76085709      16.67058708
Pd       1.24947850       4.85138500      16.09765738
Pd      11.98009877       9.67427108      16.08554736
Pd       9.65552769       1.55476019      15.76725358
Pd       5.27822923       1.90178327      16.49815311
Pd       5.05916308       9.93001994      16.57255520
Pd       5.47091118      13.70677892      13.99823342
Pd      10.49243508      12.49403855      16.71618364
Pd       1.97734789       1.86157933      16.70343767
Pd       4.20840977       4.44255420      16.47878565
Pd      11.82711871       3.20752661      16.54835229
Pd       2.81177384      11.01320590      14.02609594
Pd       6.55948387       7.10705327      16.50918302
Pd       7.67846708       0.79129020      17.21179423
Pd       9.70113605       7.15554398      15.89640616
Pd       7.95225434       4.18846740      16.48645294
Pd       0.16221238      12.53948101      16.34048421
Pd       2.97451100       6.92798828      16.18489179
O        9.75118537       3.23411431      16.87257223
O       10.19788459      10.64405250      15.91570136
O       12.32192131      11.64269554      16.91150718
O       12.01692444       1.30292250      17.23156795
O       10.78668345       0.67451542      17.33621056
O        4.76091532       7.97682987      16.03235344
O        4.19525996       1.45576349      14.83886918
O        1.79076596      13.62633321      16.07303532
O        8.49229750      12.78471888      17.13050645
O        3.20542583      10.76067020      16.08535771
O        3.69340457       0.92732885      17.33062599
O        2.52208513       3.72455009      17.21475813
O        8.31179627       6.21313689      16.95441805
O        6.82733709       9.01720071      17.08702502
O        6.05497997       5.17066993      16.05927668
O        0.12036553       3.00348331      16.12887229
O       11.62329778       5.12982648      15.98733137
O       13.61619228       8.54623429      16.26433850
O        6.90804946       2.57564266      17.35059801
O        5.31470195      11.84387314      17.11973045
