115
Lattice="13.75323 0.0 0.0 0.0 13.75323 0.0 0.0 0.0 23.89" Properties=species:S:1:pos:R:3 entry_id=8 rank=29 energy=-571.5343627929688 parent_id=7 pbc="T T F"
Pd       0.00000000       0.00000000      10.00000000
Pd       2.75064538       0.00000000      10.00000000
Pd       5.50129076       0.00000000      10.00000000
Pd       8.25193614       0.00000000      10.00000000
Pd      11.00258152       0.00000000      10.00000000
Pd       0.00000000       2.75064538      10.00000000
Pd       2.75064538       2.75064538      10.00000000
Pd       5.50129076       2.75064538      10.00000000
Pd       8.25193614       2.75064538      10.00000000
Pd      11.00258152       2.75064538      10.00000000
Pd       0.00000000       5.50129076      10.00000000
Pd       2.75064538       5.50129076      10.00000000
Pd       5.50129076       5.50129076      10.00000000
Pd       8.25193614       5.50129076      10.00000000
Pd      11.00258152       5.50129076      10.00000000
Pd       0.00000000       8.25193614      10.00000000
Pd       2.75064538       8.25193614      10.00000000
Pd       5.50129076       8.25193614      10.00000000
Pd       8.25193614       8.25193614      10.00000000
Pd      11.00258152       8.25193614      10.00000000
Pd       0.00000000      11.00258152      10.00000000
Pd       2.75064538      11.00258152      10.00000000
Pd       5.50129076      11.00258152      10.00000000
Pd       8.25193614      11.00258152      10.00000000
Pd      11.00258152      11.00258152      10.00000000
Pd       1.33058433       1.38420475      12.04255283
Pd       4.07704354       1.39864098      11.95386478
Pd       6.82936157       1.40903743      11.96011822
Pd       9.57512057       1.39592898      11.89594876
Pd      12.38684272       1.37174114      11.92044161
Pd       1.38552725       4.09500140      11.94936945
Pd       4.14100805       4.13054667      11.95014029
Pd       6.85107465       4.15157227      12.01740059
Pd       9.56728621       4.13975942      11.94281254
Pd      12.36578195       4.13265160      11.93417299
Pd       1.37110082       6.89256210      11.94010419
Pd       4.13935064       6.87026939      11.96482277
Pd       6.87097415       6.85831372      11.95140951
Pd       9.64205429       6.82915781      11.94515418
Pd      12.39111484       6.85622887      11.94896407
Pd       1.36043139       9.67822940      12.01683785
Pd       4.11777592       9.66324146      11.95099537
Pd       6.89476706       9.64088005      11.95142944
Pd       9.64982872       9.59779534      11.89439304
Pd      12.42487279       9.60955999      11.94161946
Pd       1.35359203      12.41706392      11.99792163
Pd       4.09003640      12.38390687      11.99216052
Pd       6.86816975      12.39901143      11.97280504
Pd       9.63028672      12.36702810      11.91406436
Pd      12.39039287      12.33836329      11.95826764
Pd      13.69829077      13.69843583      14.05748769
Pd       2.70728535       0.10683390      14.06104371
Pd       5.52539157       0.00312091      13.95943952
Pd       8.24094193       0.01774234      13.88701587
Pd      10.97966096      13.74052668      13.80854574
Pd      13.70250824       2.68352303      14.10826875
Pd       2.67741319       2.86137977      14.03598451
Pd       5.50669673       2.87160600      14.03663557
Pd       8.22144170       2.77224620      13.95382853
Pd      11.01369918       2.72519340      13.82212791
Pd       0.07370332       5.39167483      13.89202429
Pd       2.84445296       5.58529786      13.86843661
Pd       5.55442534       5.56318277      14.05768272
Pd       8.26063078       5.51290252      14.04753834
Pd      11.05603582       5.38656226      13.93663115
Pd       0.13250969       8.15302382      13.99841069
Pd       2.79726831       8.31866016      13.92664393
Pd       5.55283553       8.26030268      13.97795483
Pd       8.29827606       8.30419394      13.94931571
Pd      11.06508998       8.17233301      13.95023741
Pd      13.60352027      10.92764702      14.14963787
Pd       2.55672075      11.15772630      14.04397203
Pd       5.38323099      10.97341195      13.95959787
Pd       8.25872176      11.10302415      14.48418738
Pd      10.86268494      10.92114907      13.86910834
Pd      12.69935574       6.40025133      16.13965896
Pd       9.36737971       9.27189675      16.32027148
Pd       2.68277299      13.12505862      16.67940934
Pd       1.55567541       5.94745904      16.13448028
Pd      12.58321181       9.10746106      16.10377445
Pd       9.66568967       1.39974678      15.66722019
Pd       5.02813139       1.51988561      16.89877775
Pd       6.02119808       9.24072005      16.57145569
Pd       5.31981269      12.49491463      16.36358240
Pd      10.94389439      12.34939953      16.20899325
Pd       1.54265516       2.43521283      16.82928004
Pd       4.43846929       4.29491536      16.35713552
Pd      11.69083436       3.10385282      16.60759672
Pd       3.58053928       9.76927706      16.07520887
Pd       6.92471267       6.47890352      16.80407307
Pd       7.73140097      13.72704978      16.62991552
Pd      10.02390542       6.75184478      16.03780589
Pd       7.85843222       3.49458975      16.75339105
Pd       0.08557507      13.73388327      16.88873940
Pd       4.03408922       7.03551720      15.95299960
O        9.73606495       2.81558223      17.05305393
O       11.02115586      10.32635196      15.92563461
O       12.94977533      12.45188284      15.69537570
O       12.00789262       1.17438067      17.28345247
O       10.82062142       0.41221970      17.11510451
O        5.34660101       7.55678181      17.39515457
O        4.29430818       1.43231425      14.91599300
O        0.71931841       1.25706783      18.10059593
O        8.89976294      12.16179176      16.25519513
O        2.30872474      11.31423006      16.08088352
O        3.12766826       1.19826926      17.29591996
O        2.50521371       4.06396808      15.96056468
O        8.45542028       5.39241241      16.15371939
O        7.82446312       8.34931153      17.04461064
O        6.19926609       4.61372565      17.08638172
O       13.61776396       3.30196934      16.06832709
O       11.32128160       5.01063978      16.02026391
O        0.39782283       7.74676917      16.15813555
O        6.96035764       1.70683399      17.23630071
O        6.51793692      10.95313537      15.71910854
