115
Lattice="13.75323 0.0 0.0 0.0 13.75323 0.0 0.0 0.0 23.89" Properties=species:S:1:pos:R:3 entry_id=28 rank=7 energy=-573.5928344726562 parent_id=27 pbc="T T F"
Pd       0.00000000       0.00000000      10.00000000
Pd       2.75064538       0.00000000      10.00000000
Pd       5.50129076       0.00000000      10.00000000
Pd       8.25193614       0.00000000      10.00000000
Pd      11.00258152       0.00000000      10.00000000
Pd       0.00000000       2.75064538      10.00000000
Pd       2.75064538       2.75064538      10.00000000
Pd       5.50129076       2.75064538      10.00000000
Pd       8.25193614       2.75064538      10.00000000
Pd      11.00258152       2.75064538      10.00000000
Pd       0.00000000       5.50129076      10.00000000
Pd       2.75064538       5.50129076      10.00000000
Pd       5.50129076       5.50129076      10.00000000
Pd       8.25193614       5.50129076      10.00000000
Pd      11.00258152       5.50129076      10.00000000
Pd       0.00000000       8.25193614      10.00000000
Pd       2.75064538       8.25193614      10.00000000
Pd       5.50129076       8.25193614      10.00000000
Pd       8.25193614       8.25193614      10.00000000
Pd      11.00258152       8.25193614      10.00000000
Pd       0.00000000      11.00258152      10.00000000
Pd       2.75064538      11.00258152      10.00000000
Pd       5.50129076      11.00258152      10.00000000
Pd       8.25193614      11.00258152      10.00000000
Pd      11.00258152      11.00258152      10.00000000
Pd       1.36045438       1.37966316      11.98347021
Pd       4.08582941       1.35421434      12.01871697
Pd       6.83232171       1.36852043      11.99746146
Pd       9.57512057       1.39592898      11.89594876
Pd      12.38684272       1.37174114      11.92044161
Pd       1.37697319       4.10239983      11.95605691
Pd       4.13827855       4.11450282      11.96699482
Pd       6.86078415       4.12857625      11.96812389
Pd       9.56728621       4.13975942      11.94281254
Pd      12.36578195       4.13265160      11.93417299
Pd       1.37110082       6.89256210      11.94010419
Pd       4.13935064       6.87026939      11.96482277
Pd       6.87097415       6.85831372      11.95140951
Pd       9.64205429       6.82915781      11.94515418
Pd      12.39111484       6.85622887      11.94896407
Pd       1.38216668       9.64787418      11.98399980
Pd       4.11777592       9.66324146      11.95099537
Pd       6.89476706       9.64088005      11.95142944
Pd       9.64982872       9.59779534      11.89439304
Pd      12.42487279       9.60955999      11.94161946
Pd       1.38471311      12.36601967      11.99068098
Pd       4.12229918      12.40232839      12.00849610
Pd       6.86816975      12.39901143      11.97280504
Pd       9.63028672      12.36702810      11.91406436
Pd      12.37280822      12.34377046      11.97336200
Pd      13.64187460      13.73769317      13.93366676
Pd       2.62933709       0.03695417      14.03330598
Pd       5.56404237      10.95972616      13.97288923
Pd       8.25323927      13.74555379      14.01060201
Pd      10.96019997      13.74847726      13.92895535
Pd      13.73132691       2.70948521      14.04196467
Pd       2.71316247       2.79686651      14.03737303
Pd       5.43041676       2.83543075      13.96991656
Pd       8.21188705       2.78500337      13.96182299
Pd      11.00514681       2.74370215      13.82593315
Pd       0.03857083       5.50054800      13.87830240
Pd       2.79909757       5.48833987      13.91689039
Pd       5.56821459       5.50015565      14.03175496
Pd       8.30366219       5.52104928      14.00239551
Pd      11.02626927       5.44422120      14.05030592
Pd       0.02794745       8.24690438      14.02051289
Pd       2.73149740       8.24705895      13.90442750
Pd       5.45313003       8.23711784      13.99221842
Pd       8.21360043       8.25761830      13.94697885
Pd      11.02598497       8.24191242      13.92907357
Pd       0.01372980      10.99415705      14.02647736
Pd       1.57334921       9.58558914      16.08895214
Pd       8.27035991      11.00310949      13.88335342
Pd       7.00550743      12.20600569      15.94203860
Pd      10.96814738      11.02225991      13.92179734
Pd      12.74298828       6.71516410      16.09000385
Pd       8.49363776       9.70028798      16.31491315
Pd       3.61452652      12.71610714      16.59700813
Pd       1.28117192       4.80919853      16.06525844
Pd      11.99839337       9.62823056      16.08314010
Pd       9.65441667       1.51838757      15.75465554
Pd       5.33332726       1.88599746      17.23706386
Pd       5.09501660       9.87764154      16.56609005
Pd       5.43212449      13.63078013      14.10091431
Pd      10.54331067      12.45387179      16.72606012
Pd       2.02536046       1.81108732      16.59520893
Pd       4.27201849       4.33544857      16.44028969
Pd      11.86110352       3.17535487      16.52268911
Pd       2.83255050      11.01802420      14.01744099
Pd       6.58956771       7.05229995      16.50114907
Pd       7.82131950       0.78930515      17.39982000
Pd       9.71569596       7.14483602      15.89619708
Pd       8.03851928       4.15452706      16.45152353
Pd       0.20485299      12.47893429      16.30413129
Pd       3.01567015       6.86126942      16.16935946
O        9.81618236       3.19318521      16.85933699
O       10.22580464      10.60911026      15.92289148
O       12.37016845      11.58811362      16.90152162
O       12.05807012       1.26910404      17.20147879
O       10.83135788       0.63960982      17.31734002
O        4.79017564       7.92398427      16.03246114
O        5.76328229       1.43651688      15.30314756
O        1.83109530      13.56922877      16.00410100
O        8.55692728      12.76272780      17.17478880
O        3.24699743      10.70665479      16.06235346
O        3.67735227       0.87769966      17.31153832
O        2.55779483       3.65694016      17.15443482
O        8.34163312       6.19352284      16.96643583
O        6.85717672       8.96702655      17.08281986
O        6.11439017       5.09732023      16.04504348
O        0.13974550       2.97717993      16.08471779
O       11.64885378       5.10323170      15.97608299
O       13.64322056       8.51416144      16.26214119
O        7.11599083       2.60920937      17.55286067
O        5.35825012      11.79808498      17.09411941
