115
Lattice="13.75323 0.0 0.0 0.0 13.75323 0.0 0.0 0.0 23.89" Properties=species:S:1:pos:R:3 entry_id=1 rank=35 energy=-571.2469482421875 parent_id=0 pbc="T T F"
Pd       0.00000000       0.00000000      10.00000000
Pd       2.75064538       0.00000000      10.00000000
Pd       5.50129076       0.00000000      10.00000000
Pd       8.25193614       0.00000000      10.00000000
Pd      11.00258152       0.00000000      10.00000000
Pd       0.00000000       2.75064538      10.00000000
Pd       2.75064538       2.75064538      10.00000000
Pd       5.50129076       2.75064538      10.00000000
Pd       8.25193614       2.75064538      10.00000000
Pd      11.00258152       2.75064538      10.00000000
Pd       0.00000000       5.50129076      10.00000000
Pd       2.75064538       5.50129076      10.00000000
Pd       5.50129076       5.50129076      10.00000000
Pd       8.25193614       5.50129076      10.00000000
Pd      11.00258152       5.50129076      10.00000000
Pd       0.00000000       8.25193614      10.00000000
Pd       2.75064538       8.25193614      10.00000000
Pd       5.50129076       8.25193614      10.00000000
Pd       8.25193614       8.25193614      10.00000000
Pd      11.00258152       8.25193614      10.00000000
Pd       0.00000000      11.00258152      10.00000000
Pd       2.75064538      11.00258152      10.00000000
Pd       5.50129076      11.00258152      10.00000000
Pd       8.25193614      11.00258152      10.00000000
Pd      11.00258152      11.00258152      10.00000000
Pd       1.29920667       1.38568365      12.06501994
Pd       4.05616465       1.39744852      11.93243770
Pd       6.81176058       1.38443629      11.91612917
Pd       9.57512057       1.39592898      11.89594876
Pd      12.38684272       1.37174114      11.92044161
Pd       1.34696277       4.10999227      12.01718392
Pd       4.06104734       4.15844582      11.96616248
Pd       6.81361880       4.15765001      11.95582426
Pd       9.56728621       4.13975942      11.94281254
Pd      12.36578195       4.13265160      11.93417299
Pd       1.37110082       6.89256210      11.94010419
Pd       4.13935064       6.87026939      11.96482277
Pd       6.87097415       6.85831372      11.95140951
Pd       9.64205429       6.82915781      11.94515418
Pd      12.39111484       6.85622887      11.94896407
Pd       1.35761721       9.66812617      11.98912670
Pd       4.11777592       9.66324146      11.95099537
Pd       6.89476706       9.64088005      11.95142944
Pd       9.64982872       9.59779534      11.89439304
Pd      12.42487279       9.60955999      11.94161946
Pd       1.34570354      12.42390950      12.03343085
Pd       4.12965118      12.40509977      11.94162637
Pd       6.86816975      12.39901143      11.97280504
Pd       9.63028672      12.36702810      11.91406436
Pd      12.41650134      12.34561331      12.00200295
Pd      13.63165240      13.65281374      14.23513194
Pd       2.68673926       0.04230415      14.01799996
Pd       5.50779728      13.73085839      13.97649677
Pd       8.22806849       0.04007441      13.82965353
Pd      10.95584054       0.04606461      13.83887622
Pd      13.59215335       2.66326091      14.10831417
Pd       2.60798983       2.84022966      14.09620459
Pd       5.48724681       2.75363799      13.85993779
Pd       8.19089783       2.78507585      13.84646951
Pd      10.92984123       2.73581191      13.86893524
Pd      13.74632082       5.39052592      14.01371956
Pd       2.69540499       5.58789759      14.00374046
Pd       5.46636115       5.57871715      14.07324049
Pd       8.19952897       5.52391874      13.98735628
Pd      10.97713355       5.41681018      13.94906006
Pd       0.08510943       8.16216158      13.97957853
Pd       2.77437476       8.33644819      13.92943873
Pd       5.52002600       8.25646164      13.98989028
Pd       8.25535303       8.31932535      13.96816367
Pd      11.02043504       8.20873738      13.92354939
Pd       0.11854127      10.94351015      14.28528468
Pd       2.82342023      11.09728635      13.88688429
Pd       5.58872547      10.97087943      13.98436228
Pd       8.29855326      11.10674447      14.11688524
Pd      11.04481086      10.96618078      13.89496127
Pd      12.40408412       6.60731724      16.09151504
Pd       9.04532175       9.61038849      16.35240701
Pd       1.78528662      13.06290851      16.50674732
Pd       1.27865661       6.23459725      16.38802131
Pd      12.37719598       9.32719693      16.04121893
Pd       9.33629901       1.45344566      15.73507493
Pd       4.43833479       1.36751590      16.91217991
Pd       5.41921299       9.41546088      16.63127742
Pd       4.23524206      12.34672683      16.02900700
Pd      10.51141259      12.55569232      16.22130148
Pd       1.12451360       2.54164714      16.63992158
Pd       3.72711499       4.24545021      16.28130438
Pd      11.22047418       3.29386923      16.62668243
Pd       2.80510384       9.86656289      16.20138258
Pd       7.09825065       7.08329037      16.46153090
Pd       7.24606718      13.67504695      16.35479586
Pd       9.67502858       6.98253698      15.93654342
Pd       7.31407951       3.44213622      16.42970499
Pd      13.26612268       0.40778044      17.13738280
Pd       3.87136375       7.04001902      15.95917648
O        9.21155841       2.97843919      17.03790689
O       10.78524993      10.51215599      15.93538569
O       12.47936186      12.87963602      15.93077854
O       11.45327235       1.42617612      17.53954405
O       10.31619212       0.58436051      17.32230715
O        5.20773565       7.56533330      17.30844156
O        4.10749315       1.46978317      14.86301451
O        0.29101350       1.71584292      18.23255401
O        8.50795674      12.13979418      16.05308529
O        1.23817179      11.20919413      16.06168691
O        2.50714026       1.06881702      17.10783702
O        1.96977047       4.50604368      17.01625308
O        7.92350377       5.31425632      16.00249600
O        7.39983253       8.93562284      17.10823239
O        5.54736958       4.01751888      15.54898526
O       13.19482135       3.46357954      15.96767807
O       10.98739567       5.22978529      16.03883270
O        0.14213547       7.95784534      16.09680963
O        6.39627535       1.62618528      16.92216622
O        5.83956227      11.20333941      16.01476692
