115
Lattice="13.75323 0.0 0.0 0.0 13.75323 0.0 0.0 0.0 23.89" Properties=species:S:1:pos:R:3 entry_id=9 rank=26 energy=-571.6378173828125 parent_id=8 pbc="T T F"
Pd       0.00000000       0.00000000      10.00000000
Pd       2.75064538       0.00000000      10.00000000
Pd       5.50129076       0.00000000      10.00000000
Pd       8.25193614       0.00000000      10.00000000
Pd      11.00258152       0.00000000      10.00000000
Pd       0.00000000       2.75064538      10.00000000
Pd       2.75064538       2.75064538      10.00000000
Pd       5.50129076       2.75064538      10.00000000
Pd       8.25193614       2.75064538      10.00000000
Pd      11.00258152       2.75064538      10.00000000
Pd       0.00000000       5.50129076      10.00000000
Pd       2.75064538       5.50129076      10.00000000
Pd       5.50129076       5.50129076      10.00000000
Pd       8.25193614       5.50129076      10.00000000
Pd      11.00258152       5.50129076      10.00000000
Pd       0.00000000       8.25193614      10.00000000
Pd       2.75064538       8.25193614      10.00000000
Pd       5.50129076       8.25193614      10.00000000
Pd       8.25193614       8.25193614      10.00000000
Pd      11.00258152       8.25193614      10.00000000
Pd       0.00000000      11.00258152      10.00000000
Pd       2.75064538      11.00258152      10.00000000
Pd       5.50129076      11.00258152      10.00000000
Pd       8.25193614      11.00258152      10.00000000
Pd      11.00258152      11.00258152      10.00000000
Pd       1.32651735       1.38501190      12.04020315
Pd       4.07612385       1.40257904      11.94706279
Pd       6.82789213       1.40911317      11.95429287
Pd       9.57512057       1.39592898      11.89594876
Pd      12.38684272       1.37174114      11.92044161
Pd       1.38433173       4.09510146      11.95314811
Pd       4.14186543       4.13029989      11.94664790
Pd       6.84558082       4.14300818      12.00627010
Pd       9.56728621       4.13975942      11.94281254
Pd      12.36578195       4.13265160      11.93417299
Pd       1.37110082       6.89256210      11.94010419
Pd       4.13935064       6.87026939      11.96482277
Pd       6.87097415       6.85831372      11.95140951
Pd       9.64205429       6.82915781      11.94515418
Pd      12.39111484       6.85622887      11.94896407
Pd       1.36499784       9.68004941      12.01593694
Pd       4.11777592       9.66324146      11.95099537
Pd       6.89476706       9.64088005      11.95142944
Pd       9.64982872       9.59779534      11.89439304
Pd      12.42487279       9.60955999      11.94161946
Pd       1.35461237      12.41355997      12.00720165
Pd       4.08701308      12.38868955      11.98395512
Pd       6.86816975      12.39901143      11.97280504
Pd       9.63028672      12.36702810      11.91406436
Pd      12.38912649      12.33908951      11.96148280
Pd      13.68370292      13.71009854      14.05583929
Pd       2.69307572       0.09558967      14.04945927
Pd       5.50737024       0.02913277      13.95255345
Pd       8.22499589       0.04983090      13.89312830
Pd      10.96452597      13.74525894      13.80849516
Pd      13.70272907       2.69408236      14.11549766
Pd       2.67857657       2.86216606      14.02868774
Pd       5.51524345       2.86908448      14.05035633
Pd       8.22144885       2.76929509      13.94966086
Pd      11.01787443       2.73330007      13.82207814
Pd       0.07518363       5.39650834      13.89834309
Pd       2.84479965       5.58254052      13.86529854
Pd       5.55306461       5.55821446      14.05554357
Pd       8.27300802       5.47887265      14.00156789
Pd      11.05763018       5.39968857      13.94589152
Pd       0.12197646       8.15501473      13.98364366
Pd       2.78302075       8.31464087      13.93545716
Pd       5.49902267       8.27056748      13.94335649
Pd       8.22796086       8.27311104      13.94889500
Pd      11.05936015       8.16444788      13.98175054
Pd      13.63715521      10.93607765      14.13793634
Pd       2.58836137      11.14314405      14.06058817
Pd       5.38546129      10.99911239      13.93836660
Pd       8.28704235      11.16008110      14.44474444
Pd      10.90420142      10.91785045      13.89243258
Pd      12.72124977       6.43774883      16.13984185
Pd       9.50882168       9.30763550      16.12087853
Pd       2.69943103      13.13526893      16.67745339
Pd       1.58165836       5.94710997      16.13886558
Pd      12.68657734       9.14743033      16.12645487
Pd       9.67365062       1.42521165      15.67630768
Pd       5.04918896       1.53694798      16.84731469
Pd       5.99634176       9.31056496      16.50413063
Pd       5.35188014      12.54243967      16.36016034
Pd      10.97945377      12.39939532      16.21168162
Pd       1.56373774       2.45744380      16.82860911
Pd       4.46752276       4.30133568      16.40780728
Pd      11.70750161       3.13204996      16.62170957
Pd       3.48890495       9.70733730      16.15292460
Pd       6.91733126       6.41706946      16.65782176
Pd       7.76106376      13.73319786      16.65935622
Pd      10.02669194       6.69741676      16.13986644
Pd       7.85033047       3.45977453      16.77264154
Pd       0.11070069       0.02534375      16.90511592
Pd       4.05192411       7.03033126      15.96182274
O        9.75535760       2.83268419      17.06858878
O       11.14878605      10.38609421      16.02391734
O       12.97910147      12.51096992      15.70262539
O       12.02111280       1.21298427      17.30591510
O       10.83460748       0.45205198      17.12821859
O        5.44326019       7.59522217      17.31887143
O        4.22115736       1.46180064      14.89066786
O        0.74312923       1.29849084      18.11926549
O        8.93276570      12.18213952      16.24662947
O        2.31910600      11.32050522      16.09285678
O        3.14676601       1.21179327      17.28167816
O        2.54099756       4.07486988      15.95694648
O        8.45085368       5.30586496      16.08199164
O        7.82378560       8.25762908      16.08238380
O        6.21394337       4.61810472      17.19299491
O       13.63468174       3.32754956      16.07371758
O       11.33851482       5.04361272      16.04055673
O        0.45296729       7.74963684      16.15307853
O        6.96639159       1.69198506      17.29627790
O        6.52364275      11.00908478      15.67359123
