115
Lattice="13.75323 0.0 0.0 0.0 13.75323 0.0 0.0 0.0 23.89" Properties=species:S:1:pos:R:3 entry_id=24 rank=16 energy=-572.2527465820312 parent_id=23 pbc="T T F"
Pd       0.00000000       0.00000000      10.00000000
Pd       2.75064538       0.00000000      10.00000000
Pd       5.50129076       0.00000000      10.00000000
Pd       8.25193614       0.00000000      10.00000000
Pd      11.00258152       0.00000000      10.00000000
Pd       0.00000000       2.75064538      10.00000000
Pd       2.75064538       2.75064538      10.00000000
Pd       5.50129076       2.75064538      10.00000000
Pd       8.25193614       2.75064538      10.00000000
Pd      11.00258152       2.75064538      10.00000000
Pd       0.00000000       5.50129076      10.00000000
Pd       2.75064538       5.50129076      10.00000000
Pd       5.50129076       5.50129076      10.00000000
Pd       8.25193614       5.50129076      10.00000000
Pd      11.00258152       5.50129076      10.00000000
Pd       0.00000000       8.25193614      10.00000000
Pd       2.75064538       8.25193614      10.00000000
Pd       5.50129076       8.25193614      10.00000000
Pd       8.25193614       8.25193614      10.00000000
Pd      11.00258152       8.25193614      10.00000000
Pd       0.00000000      11.00258152      10.00000000
Pd       2.75064538      11.00258152      10.00000000
Pd       5.50129076      11.00258152      10.00000000
Pd       8.25193614      11.00258152      10.00000000
Pd      11.00258152      11.00258152      10.00000000
Pd       1.36528942       1.38276942      12.00946212
Pd       4.10012006       1.33766309      12.00811198
Pd       6.83222643       1.33629398      12.06211811
Pd       9.57512057       1.39592898      11.89594876
Pd      12.38684272       1.37174114      11.92044161
Pd       1.35408887       4.10303524      11.96765222
Pd       4.11434329       4.11863113      11.92736863
Pd       6.84063459       4.12993988      11.97671890
Pd       9.56728621       4.13975942      11.94281254
Pd      12.36578195       4.13265160      11.93417299
Pd       1.37110082       6.89256210      11.94010419
Pd       4.13935064       6.87026939      11.96482277
Pd       6.87097415       6.85831372      11.95140951
Pd       9.64205429       6.82915781      11.94515418
Pd      12.39111484       6.85622887      11.94896407
Pd       1.41484776       9.67838639      11.98932002
Pd       4.11777592       9.66324146      11.95099537
Pd       6.89476706       9.64088005      11.95142944
Pd       9.64982872       9.59779534      11.89439304
Pd      12.42487279       9.60955999      11.94161946
Pd       1.37828709      12.37880135      11.98265585
Pd       4.11060869      12.37099849      11.94234869
Pd       6.86816975      12.39901143      11.97280504
Pd       9.63028672      12.36702810      11.91406436
Pd      12.35171551      12.32580998      12.01348263
Pd      13.67289878       0.02794692      13.94986349
Pd       2.67370415      13.65914255      14.00769113
Pd       5.44935946      13.18487041      14.16282395
Pd       8.29730511      13.47596089      14.04853753
Pd      10.97744398      13.67339353      13.96246132
Pd      13.70969520       2.75107618      14.08343294
Pd       2.67397655       2.76951800      14.04341492
Pd       5.38755674       2.90620376      13.94801224
Pd       8.24398561       2.80108618      13.89899936
Pd      11.00564537       2.70730270      13.84693884
Pd       0.04136784       5.54714276      13.94033876
Pd       2.79506922       5.49175913      13.84983641
Pd       5.54228006       5.58759830      14.04199151
Pd       8.27597712       5.55407869      13.99820237
Pd      11.01791918       5.46452040      13.98363110
Pd       0.05422924       8.30311645      13.93562138
Pd       2.75095377       8.29221153      13.92432020
Pd       5.46632057       8.41456619      14.02113531
Pd       8.24046370       8.37393895      13.99603708
Pd      11.00961257       8.33332057      13.95786669
Pd       0.07213171      11.05001283      13.98060991
Pd       1.71292791       9.79399545      16.00676813
Pd       6.87857856      10.86668967      14.32112517
Pd       7.26849994      12.41882634      16.46227328
Pd       9.80558903      11.01096358      14.14097917
Pd      12.63619062       6.99571425      15.99997579
Pd       8.56307557       9.76238414      16.46915832
Pd       3.90476495      12.70284065      16.85212138
Pd       1.46690473       4.69653412      15.99467148
Pd      12.06308291       9.86826816      15.95548186
Pd       9.55570234       1.48316787      15.76962527
Pd       5.50366271       2.00198252      17.84657740
Pd       5.29160434       9.88337055      16.70708336
Pd       6.80902981       1.33562932      15.65115561
Pd      10.69334302      12.65803976      16.83049240
Pd       2.45580328       1.73546781      16.59822187
Pd       4.41244480       4.29011129      16.55294204
Pd      11.70778268       3.47680674      16.46937534
Pd       3.72741170      10.96321301      14.17806309
Pd       6.69341493       7.05120930      16.57909170
Pd       8.08193919       1.09306033      17.96587447
Pd       9.69728864       7.08378986      15.90813763
Pd       7.97779121       4.11839158      16.40309672
Pd       0.49025567      12.54279762      16.26783624
Pd       3.25262583       6.76835727      16.08193348
O        9.73792988       3.23477393      16.80839805
O       10.25715338      10.76744398      16.11571376
O       12.53868863      11.77438089      16.73783392
O       12.09332350       1.56605750      17.08610185
O       10.94929661       0.85978326      17.33117117
O        4.94816683       7.96390957      16.05884360
O        4.91417772       1.22089933      14.91841451
O        2.21819490      13.52382743      16.06201721
O        8.82531617      13.05428083      17.60769982
O        3.48406124      10.75560836      16.19924557
O        3.96228193       0.84156612      17.68030629
O        2.69507604       3.59809714      17.19308052
O        8.38168021       6.13728392      17.07755162
O        6.98895274       8.93188871      17.26114562
O        6.16859268       5.12249706      16.04930823
O       13.64163707       3.38930958      16.01101796
O       11.39642913       5.45863136      16.02059325
O       13.72509380       8.74989588      16.02273614
O        7.22871523       2.87597176      18.12355228
O        5.58986964      11.74900831      17.39258969
