115
Lattice="13.75323 0.0 0.0 0.0 13.75323 0.0 0.0 0.0 23.89" Properties=species:S:1:pos:R:3 entry_id=35 rank=1 energy=-575.2415771484375 parent_id=34 pbc="T T F"
Pd       0.00000000       0.00000000      10.00000000
Pd       2.75064538       0.00000000      10.00000000
Pd       5.50129076       0.00000000      10.00000000
Pd       8.25193614       0.00000000      10.00000000
Pd      11.00258152       0.00000000      10.00000000
Pd       0.00000000       2.75064538      10.00000000
Pd       2.75064538       2.75064538      10.00000000
Pd       5.50129076       2.75064538      10.00000000
Pd       8.25193614       2.75064538      10.00000000
Pd      11.00258152       2.75064538      10.00000000
Pd       0.00000000       5.50129076      10.00000000
Pd       2.75064538       5.50129076      10.00000000
Pd       5.50129076       5.50129076      10.00000000
Pd       8.25193614       5.50129076      10.00000000
Pd      11.00258152       5.50129076      10.00000000
Pd       0.00000000       8.25193614      10.00000000
Pd       2.75064538       8.25193614      10.00000000
Pd       5.50129076       8.25193614      10.00000000
Pd       8.25193614       8.25193614      10.00000000
Pd      11.00258152       8.25193614      10.00000000
Pd       0.00000000      11.00258152      10.00000000
Pd       2.75064538      11.00258152      10.00000000
Pd       5.50129076      11.00258152      10.00000000
Pd       8.25193614      11.00258152      10.00000000
Pd      11.00258152      11.00258152      10.00000000
Pd       1.38327769       1.38295872      11.98118576
Pd       4.13362959       1.38580100      11.99157678
Pd       6.84265743       1.37894548      11.97118373
Pd       9.57512057       1.39592898      11.89594876
Pd      12.38684272       1.37174114      11.92044161
Pd       1.34884788       4.11965818      11.94933132
Pd       4.09021801       4.09135478      11.98031496
Pd       6.82381196       4.09884784      11.95853031
Pd       9.56728621       4.13975942      11.94281254
Pd      12.36578195       4.13265160      11.93417299
Pd       1.37110082       6.89256210      11.94010419
Pd       4.13935064       6.87026939      11.96482277
Pd       6.87097415       6.85831372      11.95140951
Pd       9.64205429       6.82915781      11.94515418
Pd      12.39111484       6.85622887      11.94896407
Pd       1.37895414       9.63622051      11.96524293
Pd       4.11777592       9.66324146      11.95099537
Pd       6.89476706       9.64088005      11.95142944
Pd       9.64982872       9.59779534      11.89439304
Pd      12.42487279       9.60955999      11.94161946
Pd       1.38001577      12.41247673      11.96351026
Pd       4.15430150      12.40413713      11.96200460
Pd       6.86816975      12.39901143      11.97280504
Pd       9.63028672      12.36702810      11.91406436
Pd      12.38578312      12.39545888      11.97691533
Pd       2.89570472       0.02967141      13.97313623
Pd       5.60323356       0.02557978      14.06368589
Pd       5.57906412       8.23623646      13.99132316
Pd      11.03675462       0.05847123      13.97024230
Pd       0.02911353       0.07075747      13.98209924
Pd      13.65600410       2.76858875      14.05416747
Pd       2.66823443       2.79107605      13.97810534
Pd       8.32599291       0.05536172      13.95096705
Pd       8.20326289       2.76170360      13.90644331
Pd      10.97080277       2.76727662      13.95996725
Pd      13.73951278       5.49894741      13.92036143
Pd       2.74192308       5.55843958      13.90556089
Pd       5.43073982       2.72860978      14.10072972
Pd       8.18634388       5.49330747      13.94404932
Pd      10.96641645       5.51313701      14.04326309
Pd      13.74187851       8.22816725      13.95555648
Pd       2.74235459       8.29924586      14.01942859
Pd       5.43338703       5.45987718      13.92680916
Pd       8.34040271       8.20031342      13.99390045
Pd      11.02609344       8.27096152      13.89353611
Pd      13.74253671      11.00354425      13.94301666
Pd       2.78175493       9.93236039      16.35206652
Pd       8.24505116      10.84016419      13.99598391
Pd       8.35848148      12.22755541      17.09777473
Pd      10.97811262      11.01350981      13.90678199
Pd       1.11949648       7.26943710      16.28025524
Pd       9.47132051       9.66071562      16.45015260
Pd       4.96678510      12.70766669      16.68863668
Pd       2.47707248       4.62599702      16.46461277
Pd      12.98842369       9.41899283      16.31630703
Pd      11.87298591       2.10753950      16.57348971
Pd       6.80595885       1.79330366      16.41593443
Pd       6.20457159       9.84591925      16.74088794
Pd       5.43560245      10.98675157      14.01544634
Pd      11.86115864      12.32896445      16.39243125
Pd       3.67228945       1.79332642      16.55961972
Pd       5.70141822       4.40019988      16.42795458
Pd      12.56539948       4.75347022      16.28684275
Pd       2.71542715      11.03112823      13.89555215
Pd       7.69921565       7.16249215      16.60271518
Pd       9.51880644       0.96184516      16.32045758
Pd      11.11680988       7.23809434      16.27129474
Pd       9.25764512       4.51235581      16.47686663
Pd       1.57702562      12.42683369      16.09502948
Pd       4.04412427       6.82162456      15.95566755
O       11.03444906       3.82413383      17.04915624
O       11.19915838      10.44452665      15.91545210
O       13.62205708      11.44536726      15.99993101
O        0.32361409       0.43161019      16.02494188
O       12.83101795       0.34167530      16.76181987
O        5.83593386       7.94452977      16.06848991
O        7.71009525      12.35395352      15.16998237
O        3.21697057      13.57287987      16.05547690
O       10.14825361      13.03655779      17.06421544
O        4.56971949      10.80311712      16.02463201
O        5.30317481       0.85608853      17.26240806
O        4.06552927       3.67670941      17.19847709
O        9.51691486       6.39473311      17.13322302
O        7.88760678       8.97077013      17.37139619
O        7.44098801       5.27298828      15.94019071
O        2.02109009       2.69008452      15.88605854
O        0.68600865       5.38148066      15.91098205
O        1.12342623       9.07443346      16.94906629
O        8.56903425       2.66579656      15.92927754
O        6.52500555      11.67086472      17.49955178
