115
Lattice="13.75323 0.0 0.0 0.0 13.75323 0.0 0.0 0.0 23.89" Properties=species:S:1:pos:R:3 entry_id=29 rank=5 energy=-573.6121826171875 parent_id=28 pbc="T T F"
Pd       0.00000000       0.00000000      10.00000000
Pd       2.75064538       0.00000000      10.00000000
Pd       5.50129076       0.00000000      10.00000000
Pd       8.25193614       0.00000000      10.00000000
Pd      11.00258152       0.00000000      10.00000000
Pd       0.00000000       2.75064538      10.00000000
Pd       2.75064538       2.75064538      10.00000000
Pd       5.50129076       2.75064538      10.00000000
Pd       8.25193614       2.75064538      10.00000000
Pd      11.00258152       2.75064538      10.00000000
Pd       0.00000000       5.50129076      10.00000000
Pd       2.75064538       5.50129076      10.00000000
Pd       5.50129076       5.50129076      10.00000000
Pd       8.25193614       5.50129076      10.00000000
Pd      11.00258152       5.50129076      10.00000000
Pd       0.00000000       8.25193614      10.00000000
Pd       2.75064538       8.25193614      10.00000000
Pd       5.50129076       8.25193614      10.00000000
Pd       8.25193614       8.25193614      10.00000000
Pd      11.00258152       8.25193614      10.00000000
Pd       0.00000000      11.00258152      10.00000000
Pd       2.75064538      11.00258152      10.00000000
Pd       5.50129076      11.00258152      10.00000000
Pd       8.25193614      11.00258152      10.00000000
Pd      11.00258152      11.00258152      10.00000000
Pd       1.36698378       1.39737758      11.99199836
Pd       4.10350232       1.37078976      11.97473110
Pd       6.85541022       1.36541435      11.96420890
Pd       9.57512057       1.39592898      11.89594876
Pd      12.38684272       1.37174114      11.92044161
Pd       1.39029808       4.10382569      11.99690589
Pd       4.13567451       4.11865171      11.98162340
Pd       6.85605571       4.12577551      11.97562746
Pd       9.56728621       4.13975942      11.94281254
Pd      12.36578195       4.13265160      11.93417299
Pd       1.37110082       6.89256210      11.94010419
Pd       4.13935064       6.87026939      11.96482277
Pd       6.87097415       6.85831372      11.95140951
Pd       9.64205429       6.82915781      11.94515418
Pd      12.39111484       6.85622887      11.94896407
Pd       1.37133972       9.66121758      11.98650069
Pd       4.11777592       9.66324146      11.95099537
Pd       6.89476706       9.64088005      11.95142944
Pd       9.64982872       9.59779534      11.89439304
Pd      12.42487279       9.60955999      11.94161946
Pd       1.37470409      12.38615190      12.01130222
Pd       4.09385666      12.39900614      11.98649383
Pd       6.86816975      12.39901143      11.97280504
Pd       9.63028672      12.36702810      11.91406436
Pd      12.37368414      12.35009141      11.97942094
Pd      13.65383865       0.01900050      13.94015515
Pd       2.63100095       0.02765085      14.06516339
Pd       5.50566250      10.95552439      13.93992121
Pd       8.25381071      13.74840164      13.99259571
Pd      10.97019449       0.00184970      13.93937770
Pd       0.03317627       2.75148478      14.07828469
Pd       2.78465749       2.80491684      14.08985807
Pd       5.59371700       2.79188587      13.97413534
Pd       8.30184466       2.78743248      13.92696681
Pd      11.07430944       2.75716478      13.81471891
Pd       0.00535356       5.52900062      13.89142085
Pd       2.76198877       5.51243612      13.95567871
Pd       5.52050917       5.49307580      14.03182501
Pd       8.25553701       5.53897702      13.97238356
Pd      10.98851269       5.45039664      14.04575331
Pd       0.02289189       8.27198570      14.02888412
Pd       2.72748884       8.27541764      13.89349761
Pd       5.45196528       8.23302114      14.00976270
Pd       8.20953106       8.26802532      13.94184859
Pd      11.01775565       8.24162249      13.96003683
Pd      13.72990034      11.02670375      14.05805173
Pd       1.47677327       9.62789047      16.10925837
Pd       8.24012007      11.00419242      13.88796845
Pd       6.85122942      12.04605492      15.93258521
Pd      10.94375879      11.02407555      13.91031419
Pd      12.66557717       6.78077638      16.09122505
Pd       8.40498667       9.71906133      16.33613114
Pd       3.43385761      12.76922541      16.73450214
Pd       1.18722783       4.90225357      16.12548878
Pd      11.90963599       9.70587827      16.10533602
Pd       9.75362994       1.60536757      15.74835169
Pd       5.01355549       1.88464814      16.88174776
Pd       4.97715317       9.94514734      16.60271893
Pd       5.48191133      13.67209770      14.02150250
Pd      10.39514650      12.53112233      16.71078920
Pd       1.86270900       1.89448526      16.73822065
Pd       4.10312270       4.47431621      16.53830867
Pd      11.76962766       3.25037833      16.58606316
Pd       2.78143948      11.03058167      14.02578026
Pd       6.49185707       7.14140575      16.55037490
Pd       7.48995099       0.80575597      16.55221011
Pd       9.63507673       7.12809279      15.90100146
Pd       7.82427614       4.28793496      16.47177189
Pd       0.06064670      12.56502615      16.34404647
Pd       2.89474613       6.97231762      16.19516675
O        9.64366492       3.28649028      16.86259386
O       10.11678205      10.66427754      15.90730077
O       12.21790015      11.67694399      16.92721873
O       11.96884542       1.34573320      17.29967094
O       10.73553048       0.71175909      17.37219482
O        4.69851379       7.99944024      16.04118970
O        4.28905560       1.42878421      14.90013783
O        1.69354199      13.65428369      16.07621077
O        8.37729249      12.88893770      17.03613930
O        3.13050384      10.77481904      16.08105019
O        3.47041368       0.91152887      17.53622239
O        2.41465859       3.76171441      17.27935682
O        8.24984538       6.20281014      17.01073828
O        6.75583870       9.03909106      17.13957164
O        5.94495973       5.23071401      16.08036173
O        0.06095390       3.04657670      16.13174860
O       11.56867473       5.16327856      15.99157623
O       13.54318881       8.57844980      16.30931650
O        6.73204463       2.57698697      16.07945319
O        5.20558789      11.85197575      17.17472254
