115
Lattice="13.75323 0.0 0.0 0.0 13.75323 0.0 0.0 0.0 23.89" Properties=species:S:1:pos:R:3 entry_id=0 rank=36 energy=-568.3948974609375 parent_id=-1 pbc="T T F"
Pd       0.00000000       0.00000000      10.00000000
Pd       2.75064538       0.00000000      10.00000000
Pd       5.50129076       0.00000000      10.00000000
Pd       8.25193614       0.00000000      10.00000000
Pd      11.00258152       0.00000000      10.00000000
Pd       0.00000000       2.75064538      10.00000000
Pd       2.75064538       2.75064538      10.00000000
Pd       5.50129076       2.75064538      10.00000000
Pd       8.25193614       2.75064538      10.00000000
Pd      11.00258152       2.75064538      10.00000000
Pd       0.00000000       5.50129076      10.00000000
Pd       2.75064538       5.50129076      10.00000000
Pd       5.50129076       5.50129076      10.00000000
Pd       8.25193614       5.50129076      10.00000000
Pd      11.00258152       5.50129076      10.00000000
Pd       0.00000000       8.25193614      10.00000000
Pd       2.75064538       8.25193614      10.00000000
Pd       5.50129076       8.25193614      10.00000000
Pd       8.25193614       8.25193614      10.00000000
Pd      11.00258152       8.25193614      10.00000000
Pd       0.00000000      11.00258152      10.00000000
Pd       2.75064538      11.00258152      10.00000000
Pd       5.50129076      11.00258152      10.00000000
Pd       8.25193614      11.00258152      10.00000000
Pd      11.00258152      11.00258152      10.00000000
Pd       1.34622789       1.38085371      12.08141200
Pd       4.09710391       1.39055070      12.02482071
Pd       6.82982200       1.36958682      12.02881513
Pd       9.57512057       1.39592898      11.89594876
Pd      12.38684272       1.37174114      11.92044161
Pd       1.36477832       4.11654031      11.98601069
Pd       4.10063390       4.12337831      12.03940026
Pd       6.80964857       4.10127552      12.01948302
Pd       9.56728621       4.13975942      11.94281254
Pd      12.36578195       4.13265160      11.93417299
Pd       1.37110082       6.89256210      11.94010419
Pd       4.13935064       6.87026939      11.96482277
Pd       6.87097415       6.85831372      11.95140951
Pd       9.64205429       6.82915781      11.94515418
Pd      12.39111484       6.85622887      11.94896407
Pd       1.35621172       9.70031948      11.99807416
Pd       4.11777592       9.66324146      11.95099537
Pd       6.89476706       9.64088005      11.95142944
Pd       9.64982872       9.59779534      11.89439304
Pd      12.42487279       9.60955999      11.94161946
Pd       1.38043472      12.43191753      12.05375152
Pd       4.10022739      12.39286093      12.00403677
Pd       6.86816975      12.39901143      11.97280504
Pd       9.63028672      12.36702810      11.91406436
Pd      12.44376686      12.34107019      11.97880040
Pd      13.68380694      13.72514104      14.13500469
Pd       2.74101058       0.13694961      14.18795056
Pd       5.57273811      13.58411461      14.03497273
Pd       8.32208340       0.10878772      14.02902145
Pd      11.00943188       0.06533873      13.76258908
Pd      13.56156720       2.74998448      13.99054899
Pd       2.60935588       2.89254749      14.11896696
Pd       5.38701264       2.66350129      14.17487505
Pd       8.19632998       2.74744845      13.98477206
Pd      10.87227680       2.71364470      13.87801889
Pd       0.02064763       5.52366892      13.94644850
Pd       2.72277305       5.58691164      14.00791268
Pd       5.45642605       5.48198723      14.06972937
Pd       8.27768211       5.48390888      14.03243947
Pd      11.00184877       5.39654721      13.97226511
Pd       0.04971645       8.32460082      13.97807429
Pd       2.75360696       8.29354502      13.88785795
Pd       5.49570135       8.26292243      13.94881589
Pd       8.40020237       8.22067159      13.82456652
Pd      11.08216600       8.19518384      13.93711281
Pd      13.58927249      10.96825266      14.50059010
Pd       2.74696945      11.08188918      14.01332348
Pd       5.55695366      10.90585539      13.95547528
Pd       8.34037331      11.01506920      13.92443436
Pd      11.03612893      10.88295176      13.82899154
Pd      12.43755964       6.59289714      16.10449853
Pd       8.74021438       9.62195650      16.23412681
Pd       2.03068138      12.72903640      16.64116918
Pd       1.41923933       7.01592777      16.25559717
Pd      11.87895588       9.39105976      16.30172346
Pd       8.32083476       1.37671317      16.95485936
Pd       4.98993932       0.37823301      17.18454563
Pd       5.65052251       9.65133348      17.05438044
Pd       4.39388256      11.78164830      16.13856419
Pd      10.86722378      12.42524713      15.91210622
Pd       0.84949887       4.28643839      16.30386356
Pd       3.88138557       4.40496319      16.31843550
Pd      11.15781038       3.15628915      16.54912032
Pd       2.99008587       9.51114705      16.27595977
Pd       7.25966649       7.14717330      16.87909763
Pd       6.97190658      11.97810476      16.16853096
Pd       9.73204651       6.98604843      15.97455595
Pd       7.44857868       3.72283175      16.42963815
Pd       1.07467645       1.49132377      16.04516187
Pd       4.09054215       7.08731561      15.90612978
O        9.23781515       3.11394449      17.10128483
O       10.39576368      10.53338170      16.84738484
O       12.86571097      12.54159933      15.65832000
O       11.40050924       1.29093944      17.22754203
O       10.36268555       0.44719636      17.13445366
O        5.25432994       7.65417733      17.37633738
O        4.40735923       1.01608552      15.22013981
O        2.39095823       1.64081205      17.53598887
O        8.88604656      12.46479731      15.43794726
O        1.53671213      10.98905503      15.78936169
O        3.00995349       0.38455500      17.70400541
O        2.31055314       5.38265732      17.01135323
O        6.98084083       5.58686464      15.66944869
O        7.53886820       8.89919286      17.78025283
O        5.52323444       3.35571511      16.08840804
O       13.14557267       2.98289729      16.01056289
O       11.03822634       5.17657471      16.05769284
O       13.54549214       8.25308434      16.06250794
O        6.93527070       0.02453480      17.15691634
O        7.07536221       8.65259027      15.26883800
