115
Lattice="13.75323 0.0 0.0 0.0 13.75323 0.0 0.0 0.0 23.89" Properties=species:S:1:pos:R:3 entry_id=14 rank=21 energy=-572.0477905273438 parent_id=13 pbc="T T F"
Pd       0.00000000       0.00000000      10.00000000
Pd       2.75064538       0.00000000      10.00000000
Pd       5.50129076       0.00000000      10.00000000
Pd       8.25193614       0.00000000      10.00000000
Pd      11.00258152       0.00000000      10.00000000
Pd       0.00000000       2.75064538      10.00000000
Pd       2.75064538       2.75064538      10.00000000
Pd       5.50129076       2.75064538      10.00000000
Pd       8.25193614       2.75064538      10.00000000
Pd      11.00258152       2.75064538      10.00000000
Pd       0.00000000       5.50129076      10.00000000
Pd       2.75064538       5.50129076      10.00000000
Pd       5.50129076       5.50129076      10.00000000
Pd       8.25193614       5.50129076      10.00000000
Pd      11.00258152       5.50129076      10.00000000
Pd       0.00000000       8.25193614      10.00000000
Pd       2.75064538       8.25193614      10.00000000
Pd       5.50129076       8.25193614      10.00000000
Pd       8.25193614       8.25193614      10.00000000
Pd      11.00258152       8.25193614      10.00000000
Pd       0.00000000      11.00258152      10.00000000
Pd       2.75064538      11.00258152      10.00000000
Pd       5.50129076      11.00258152      10.00000000
Pd       8.25193614      11.00258152      10.00000000
Pd      11.00258152      11.00258152      10.00000000
Pd       1.37808210       1.35737332      12.01095302
Pd       4.11942494       1.32233532      11.98737818
Pd       6.84954185       1.34627439      12.07385516
Pd       9.57512057       1.39592898      11.89594876
Pd      12.38684272       1.37174114      11.92044161
Pd       1.36450035       4.07903574      11.97081403
Pd       4.14039896       4.10871733      11.95590461
Pd       6.85757547       4.14264782      12.01344523
Pd       9.56728621       4.13975942      11.94281254
Pd      12.36578195       4.13265160      11.93417299
Pd       1.37110082       6.89256210      11.94010419
Pd       4.13935064       6.87026939      11.96482277
Pd       6.87097415       6.85831372      11.95140951
Pd       9.64205429       6.82915781      11.94515418
Pd      12.39111484       6.85622887      11.94896407
Pd       1.37348697       9.62936106      11.95168529
Pd       4.11777592       9.66324146      11.95099537
Pd       6.89476706       9.64088005      11.95142944
Pd       9.64982872       9.59779534      11.89439304
Pd      12.42487279       9.60955999      11.94161946
Pd       1.36097608      12.35218585      11.93227296
Pd       4.11492867      12.33910349      12.00248319
Pd       6.86816975      12.39901143      11.97280504
Pd       9.63028672      12.36702810      11.91406436
Pd      12.35851381      12.35234248      11.89502911
Pd      13.67077727      13.71409057      13.87316766
Pd       2.62433797      13.42240058      14.06245156
Pd       5.49306382      13.15941389      14.28046281
Pd       8.30416682      13.48556795      14.01636128
Pd      10.97970341      13.64521328      13.93224894
Pd      13.73377871       2.71998187      14.05460084
Pd       2.70241895       2.73378547      14.09039280
Pd       5.45795010       2.86975164      14.03677986
Pd       8.26813625       2.80707736      13.92755304
Pd      11.01821150       2.69336925      13.84269887
Pd       0.03816155       5.57517448      13.90515774
Pd       2.75809048       5.48230765      13.82459549
Pd       5.53845556       5.54918400      14.11472516
Pd       8.27854383       5.59651694      14.07291894
Pd      11.00329527       5.45674317      13.99308608
Pd       0.05726276       8.47075262      14.10169158
Pd       2.74298885       8.33643535      13.92457246
Pd       5.50339388       8.33572939      14.02946581
Pd       8.26364839       8.39591549      13.98792565
Pd      11.04582378       8.36291645      13.84581731
Pd      12.43586838      11.18731468      14.26532597
Pd       1.36808432      10.95871080      14.28686249
Pd       6.85446142      10.81741042      14.32439516
Pd       7.32882582      12.38712336      16.37971434
Pd       9.68351018      10.98534082      14.21813888
Pd      12.58392908       6.67865451      16.05560493
Pd       8.49082855       9.68621832      16.58815452
Pd       4.03956664      12.68838022      16.88148995
Pd       1.42235943       4.59454286      15.92188557
Pd      11.80893480       9.42846501      16.23949601
Pd       9.60633165       1.42638493      15.77048057
Pd       5.53973002       1.95716598      17.77719063
Pd       5.29721405       9.77699012      16.91505681
Pd       6.84839292       1.28344204      15.60541244
Pd      10.62767427      12.53676194      16.82236647
Pd       2.40448302       1.70779295      16.69296724
Pd       4.34612561       4.18341599      16.60551971
Pd      11.78230924       3.23957929      16.50508463
Pd       4.04929953      10.78121768      14.34097082
Pd       6.54273600       6.96340561      16.61685162
Pd       8.09924384       0.95136125      17.95468033
Pd       9.92216697       7.41987939      16.02739649
Pd       7.97935002       4.01889622      16.55452362
Pd       0.49023958      12.69201283      16.24162803
Pd       3.57912698       6.75145736      15.86118234
O        9.78271852       3.11938536      16.88229750
O       10.18539445      10.62471289      16.23798406
O       12.47667523      11.88220442      16.24388257
O       12.12126537       1.35272922      17.15313586
O       10.92807132       0.70353298      17.35016113
O        4.74591968       7.77361588      17.05753576
O        4.26884832       1.13108906      14.12879399
O        2.28661439      13.51630590      16.15334006
O        8.82205452      12.89586563      17.68749251
O        3.68108393      10.78460045      16.32311430
O        3.98846041       0.83873629      17.66442006
O        2.59655648       3.57889682      17.24604517
O        8.36613847       6.13157277      16.14821224
O        6.98072838       8.78843266      17.37679992
O        6.11472553       4.97653504      16.16696048
O       13.72948959       3.13881164      16.04591682
O       11.44570301       5.11584718      15.95868745
O       13.47843757       8.39381879      16.14410407
O        7.29191666       2.76349886      18.08214852
O        5.73606860      11.72877715      17.42707582
