115
Lattice="13.75323 0.0 0.0 0.0 13.75323 0.0 0.0 0.0 23.89" Properties=species:S:1:pos:R:3 entry_id=18 rank=14 energy=-572.2881469726562 parent_id=17 pbc="T T F"
Pd       0.00000000       0.00000000      10.00000000
Pd       2.75064538       0.00000000      10.00000000
Pd       5.50129076       0.00000000      10.00000000
Pd       8.25193614       0.00000000      10.00000000
Pd      11.00258152       0.00000000      10.00000000
Pd       0.00000000       2.75064538      10.00000000
Pd       2.75064538       2.75064538      10.00000000
Pd       5.50129076       2.75064538      10.00000000
Pd       8.25193614       2.75064538      10.00000000
Pd      11.00258152       2.75064538      10.00000000
Pd       0.00000000       5.50129076      10.00000000
Pd       2.75064538       5.50129076      10.00000000
Pd       5.50129076       5.50129076      10.00000000
Pd       8.25193614       5.50129076      10.00000000
Pd      11.00258152       5.50129076      10.00000000
Pd       0.00000000       8.25193614      10.00000000
Pd       2.75064538       8.25193614      10.00000000
Pd       5.50129076       8.25193614      10.00000000
Pd       8.25193614       8.25193614      10.00000000
Pd      11.00258152       8.25193614      10.00000000
Pd       0.00000000      11.00258152      10.00000000
Pd       2.75064538      11.00258152      10.00000000
Pd       5.50129076      11.00258152      10.00000000
Pd       8.25193614      11.00258152      10.00000000
Pd      11.00258152      11.00258152      10.00000000
Pd       1.38623320       1.35812194      12.00597031
Pd       4.10943184       1.31155323      12.01697304
Pd       6.84003533       1.33909797      12.05381919
Pd       9.57512057       1.39592898      11.89594876
Pd      12.38684272       1.37174114      11.92044161
Pd       1.34571972       4.08356636      11.96610245
Pd       4.12057403       4.09845327      11.92238817
Pd       6.84687570       4.12895096      11.98354536
Pd       9.56728621       4.13975942      11.94281254
Pd      12.36578195       4.13265160      11.93417299
Pd       1.37110082       6.89256210      11.94010419
Pd       4.13935064       6.87026939      11.96482277
Pd       6.87097415       6.85831372      11.95140951
Pd       9.64205429       6.82915781      11.94515418
Pd      12.39111484       6.85622887      11.94896407
Pd       1.37680665       9.62920061      11.95643367
Pd       4.11777592       9.66324146      11.95099537
Pd       6.89476706       9.64088005      11.95142944
Pd       9.64982872       9.59779534      11.89439304
Pd      12.42487279       9.60955999      11.94161946
Pd       1.36815290      12.35707104      11.94066356
Pd       4.09956437      12.35109240      11.96353585
Pd       6.86816975      12.39901143      11.97280504
Pd       9.63028672      12.36702810      11.91406436
Pd      12.36144814      12.35026338      11.89658576
Pd      13.68497321      13.71510130      13.86274374
Pd       2.67171439      13.54594547      14.05135727
Pd       5.46464012      13.24276735      14.13553168
Pd       8.29793609      13.48410334      14.03666840
Pd      10.98028343      13.64645111      13.93044246
Pd      13.72533847       2.71818618      14.05415935
Pd       2.69709346       2.70870874      14.04059317
Pd       5.40931856       2.88784746      13.94170011
Pd       8.26079658       2.79371579      13.91079824
Pd      11.00923317       2.68178118      13.84688100
Pd       0.04302663       5.58059352      13.92577375
Pd       2.77439822       5.46227388      13.79964732
Pd       5.52494667       5.57142477      14.04312330
Pd       8.26666469       5.55892138      14.01285191
Pd      10.98513898       5.43272381      13.98042409
Pd       0.02624903       8.47750370      14.08545126
Pd       2.71630817       8.31398580      13.94330992
Pd       5.45498070       8.37878645      14.04132991
Pd       8.21458834       8.37530029      13.99303890
Pd      10.98261667       8.31324240      13.90793438
Pd      12.40287929      11.18350773      14.26984173
Pd       1.32624499      10.97497417      14.28173446
Pd       6.83350208      10.85224326      14.32730932
Pd       7.33503635      12.37855270      16.42810042
Pd       9.65554139      10.97142503      14.22711705
Pd      12.52842482       6.72131890      16.02552299
Pd       8.48769212       9.65789817      16.60620122
Pd       4.03855289      12.72170346      16.92239965
Pd       1.47571267       4.60063602      15.93204037
Pd      11.78487626       9.43067258      16.23542904
Pd       9.56810544       1.41759559      15.77586153
Pd       5.57692529       1.99733889      17.90638502
Pd       5.35709627       9.87844669      16.81181345
Pd       6.84042021       1.32958256      15.68842692
Pd      10.61579827      12.55158638      16.81758435
Pd       2.51968165       1.74230938      16.65680783
Pd       4.47440683       4.23802747      16.56537675
Pd      11.78204528       3.25395196      16.48663082
Pd       3.99739935      10.88099635      14.27259214
Pd       6.68640920       6.98563227      16.61299422
Pd       8.12594280       1.02226541      18.00783901
Pd       9.67930652       7.14317041      15.92595396
Pd       8.05085952       4.05574278      16.42067814
Pd       0.50061358      12.72778889      16.22900820
Pd       3.35020862       6.65051835      16.00441868
O        9.79516527       3.12250162      16.85705054
O       10.16732177      10.62183027      16.24568101
O       12.47415777      11.91792030      16.22592013
O       12.12633006       1.35921105      17.11707441
O       10.93725552       0.71506377      17.34388922
O        4.95374902       7.94829397      16.09573829
O        4.94541949       1.24263427      14.96865530
O        2.31239809      13.54833591      16.13982682
O        8.81810645      12.95006473      17.70516498
O        3.71150094      10.85485813      16.25770979
O        4.02650420       0.85873994      17.75021217
O        2.73094343       3.61585061      17.20822218
O        8.40428826       6.09427178      17.06442996
O        6.94833284       8.80980547      17.42298080
O        6.22713027       5.05500139      16.03103165
O       13.72337951       3.18738906      16.02462965
O       11.42269263       5.13370480      15.95482015
O       13.46111216       8.41535583      16.12570029
O        7.31948930       2.83033425      18.16014950
O        5.72170796      11.75106828      17.50624652
