115
Lattice="13.75323 0.0 0.0 0.0 13.75323 0.0 0.0 0.0 23.89" Properties=species:S:1:pos:R:3 entry_id=16 rank=20 energy=-572.0792236328125 parent_id=15 pbc="T T F"
Pd       0.00000000       0.00000000      10.00000000
Pd       2.75064538       0.00000000      10.00000000
Pd       5.50129076       0.00000000      10.00000000
Pd       8.25193614       0.00000000      10.00000000
Pd      11.00258152       0.00000000      10.00000000
Pd       0.00000000       2.75064538      10.00000000
Pd       2.75064538       2.75064538      10.00000000
Pd       5.50129076       2.75064538      10.00000000
Pd       8.25193614       2.75064538      10.00000000
Pd      11.00258152       2.75064538      10.00000000
Pd       0.00000000       5.50129076      10.00000000
Pd       2.75064538       5.50129076      10.00000000
Pd       5.50129076       5.50129076      10.00000000
Pd       8.25193614       5.50129076      10.00000000
Pd      11.00258152       5.50129076      10.00000000
Pd       0.00000000       8.25193614      10.00000000
Pd       2.75064538       8.25193614      10.00000000
Pd       5.50129076       8.25193614      10.00000000
Pd       8.25193614       8.25193614      10.00000000
Pd      11.00258152       8.25193614      10.00000000
Pd       0.00000000      11.00258152      10.00000000
Pd       2.75064538      11.00258152      10.00000000
Pd       5.50129076      11.00258152      10.00000000
Pd       8.25193614      11.00258152      10.00000000
Pd      11.00258152      11.00258152      10.00000000
Pd       1.38667398       1.36298562      12.00853440
Pd       4.10792922       1.32041439      12.01666050
Pd       6.84134369       1.34643642      12.05090400
Pd       9.57512057       1.39592898      11.89594876
Pd      12.38684272       1.37174114      11.92044161
Pd       1.35303703       4.08312517      11.96692157
Pd       4.12555949       4.10272554      11.92843175
Pd       6.85765160       4.14295113      12.00548974
Pd       9.56728621       4.13975942      11.94281254
Pd      12.36578195       4.13265160      11.93417299
Pd       1.37110082       6.89256210      11.94010419
Pd       4.13935064       6.87026939      11.96482277
Pd       6.87097415       6.85831372      11.95140951
Pd       9.64205429       6.82915781      11.94515418
Pd      12.39111484       6.85622887      11.94896407
Pd       1.37845859       9.62830773      11.96367844
Pd       4.11777592       9.66324146      11.95099537
Pd       6.89476706       9.64088005      11.95142944
Pd       9.64982872       9.59779534      11.89439304
Pd      12.42487279       9.60955999      11.94161946
Pd       1.35988236      12.35487013      11.94860414
Pd       4.09352391      12.35427138      11.95333994
Pd       6.86816975      12.39901143      11.97280504
Pd       9.63028672      12.36702810      11.91406436
Pd      12.35820640      12.35076867      11.90291629
Pd      13.68617869      13.72574813      13.86811480
Pd       2.67729964      13.55735334      14.04531422
Pd       5.46783664      13.30090325      14.08590098
Pd       8.29866363      13.48521321      14.03908267
Pd      10.97984116      13.64363332      13.93835705
Pd      13.72275408       2.72256659      14.05812279
Pd       2.69941373       2.71413068      14.06338821
Pd       5.41477095       2.88158619      13.94619429
Pd       8.26222188       2.78225525      13.92063713
Pd      11.00264491       2.68416488      13.85086868
Pd       0.04236772       5.58160667      13.90522579
Pd       2.76848960       5.45729921      13.81917566
Pd       5.51228887       5.55966331      14.06153538
Pd       8.28155184       5.56286890      14.07548504
Pd      11.00009034       5.44970396      13.98524620
Pd       0.05725219       8.48319681      14.10550627
Pd       2.73345075       8.31263568      13.94576115
Pd       5.45950025       8.39510109      14.03431955
Pd       8.25035661       8.38782832      13.99045881
Pd      11.04135201       8.36596518      13.84724458
Pd      12.45534722      11.19147088      14.28396844
Pd       1.38215945      10.97184480      14.29737381
Pd       6.86809314      10.87717253      14.31116578
Pd       7.35492810      12.35935403      16.43231020
Pd       9.70267707      10.98853153      14.22443380
Pd      12.59029897       6.65970002      16.05605078
Pd       8.50486759       9.67117211      16.56137631
Pd       4.04001151      12.73066660      16.93322320
Pd       1.39900795       4.62287006      15.95704665
Pd      11.81904707       9.40469613      16.23683662
Pd       9.56298207       1.40734610      15.79437899
Pd       5.54166337       1.94747009      17.94125366
Pd       5.33973928       9.87881702      16.77379505
Pd       6.83086556       1.31346582      15.71076651
Pd      10.64344904      12.53450114      16.83002738
Pd       2.47912198       1.74518801      16.68769913
Pd       4.34271244       4.20135856      16.61717805
Pd      11.73318034       3.24760854      16.51019500
Pd       4.04619998      10.91038333      14.26758944
Pd       6.60519609       6.96988585      16.35718050
Pd       8.11826039       0.94159280      18.02633187
Pd       9.91586594       7.36471962      15.99528263
Pd       7.93583694       3.95447991      16.55765963
Pd       0.52394920      12.73763920      16.23088458
Pd       3.25844691       6.64934638      16.04372464
O        9.74451829       3.09426899      16.91758407
O       10.20865131      10.61316755      16.24697023
O       12.50454202      11.92531743      16.23708086
O       12.10480337       1.36631257      17.15783567
O       10.92492883       0.69983503      17.36774763
O        4.84457567       7.95813938      16.11007078
O        4.93053178       1.25717342      15.00095788
O        2.32835544      13.55997304      16.13406736
O        8.84192414      12.88749086      17.71682553
O        3.70442453      10.87824062      16.24887196
O        3.97905091       0.84403774      17.79037813
O        2.59776184       3.61523868      17.27384333
O        8.39509884       6.04176468      16.22014552
O        6.94839925       8.77138108      17.25680843
O        6.09784365       4.94160036      16.08554562
O       13.66760051       3.18638311      16.02617998
O       11.40785515       5.12374665      15.96287767
O       13.49198513       8.37130954      16.14419905
O        7.30174989       2.75128192      18.19412499
O        5.72972679      11.74186999      17.49013652
