115
Lattice="13.75323 0.0 0.0 0.0 13.75323 0.0 0.0 0.0 23.89" Properties=species:S:1:pos:R:3 entry_id=22 rank=17 energy=-572.2452392578125 parent_id=21 pbc="T T F"
Pd       0.00000000       0.00000000      10.00000000
Pd       2.75064538       0.00000000      10.00000000
Pd       5.50129076       0.00000000      10.00000000
Pd       8.25193614       0.00000000      10.00000000
Pd      11.00258152       0.00000000      10.00000000
Pd       0.00000000       2.75064538      10.00000000
Pd       2.75064538       2.75064538      10.00000000
Pd       5.50129076       2.75064538      10.00000000
Pd       8.25193614       2.75064538      10.00000000
Pd      11.00258152       2.75064538      10.00000000
Pd       0.00000000       5.50129076      10.00000000
Pd       2.75064538       5.50129076      10.00000000
Pd       5.50129076       5.50129076      10.00000000
Pd       8.25193614       5.50129076      10.00000000
Pd      11.00258152       5.50129076      10.00000000
Pd       0.00000000       8.25193614      10.00000000
Pd       2.75064538       8.25193614      10.00000000
Pd       5.50129076       8.25193614      10.00000000
Pd       8.25193614       8.25193614      10.00000000
Pd      11.00258152       8.25193614      10.00000000
Pd       0.00000000      11.00258152      10.00000000
Pd       2.75064538      11.00258152      10.00000000
Pd       5.50129076      11.00258152      10.00000000
Pd       8.25193614      11.00258152      10.00000000
Pd      11.00258152      11.00258152      10.00000000
Pd       1.35656137       1.38909078      12.01198423
Pd       4.08972452       1.33596888      12.00347648
Pd       6.82660950       1.33694722      12.04989154
Pd       9.57512057       1.39592898      11.89594876
Pd      12.38684272       1.37174114      11.92044161
Pd       1.34579902       4.10563708      11.97606742
Pd       4.09891078       4.12486669      11.92378611
Pd       6.83636722       4.13098550      11.96814458
Pd       9.56728621       4.13975942      11.94281254
Pd      12.36578195       4.13265160      11.93417299
Pd       1.37110082       6.89256210      11.94010419
Pd       4.13935064       6.87026939      11.96482277
Pd       6.87097415       6.85831372      11.95140951
Pd       9.64205429       6.82915781      11.94515418
Pd      12.39111484       6.85622887      11.94896407
Pd       1.41168008       9.68087957      11.99378466
Pd       4.11777592       9.66324146      11.95099537
Pd       6.89476706       9.64088005      11.95142944
Pd       9.64982872       9.59779534      11.89439304
Pd      12.42487279       9.60955999      11.94161946
Pd       1.37037501      12.38370338      11.98212104
Pd       4.10290093      12.36980358      11.93761195
Pd       6.86816975      12.39901143      11.97280504
Pd       9.63028672      12.36702810      11.91406436
Pd      12.34412382      12.33187804      12.00790187
Pd      13.63495126       0.03260556      13.94903973
Pd       2.62799232      13.68052400      14.01488409
Pd       5.39632352      13.21544553      14.15256408
Pd       8.25290738      13.51476767      14.03213147
Pd      10.93881423      13.67024056      13.96918327
Pd      13.69738344       2.75657976      14.10066262
Pd       2.66619753       2.77574480      14.05039620
Pd       5.37942456       2.90820912      13.91905481
Pd       8.23243824       2.80600558      13.89017405
Pd      10.99820449       2.69831699      13.85548740
Pd       0.02166567       5.55791878      13.93960780
Pd       2.78076462       5.49603422      13.86897150
Pd       5.52660402       5.57741498      14.02711046
Pd       8.25898359       5.55337985      13.99525759
Pd      11.00710871       5.45569350      13.98364514
Pd       0.03754285       8.30645778      13.94314105
Pd       2.73593163       8.29490385      13.92630943
Pd       5.44260356       8.37117345      14.01550495
Pd       8.21084867       8.37677584      13.99475762
Pd      10.98363297       8.33110447      13.95176554
Pd       0.05777791      11.05674603      13.97707473
Pd       1.64657605       9.79459336      16.01047776
Pd       6.69373894      10.85143600      14.30473264
Pd       7.19132863      12.42967575      16.39197124
Pd       9.61334590      11.01748901      14.14823036
Pd      12.58015081       7.00677654      15.99857125
Pd       8.48247831       9.76063460      16.45806856
Pd       3.84297378      12.71529026      16.84009641
Pd       1.40049964       4.68492555      15.99337438
Pd      11.98506235       9.89475845      15.93003443
Pd       9.50764749       1.49210067      15.77783975
Pd       5.43395957       2.01972769      17.83785653
Pd       5.21474358       9.88537067      16.70059739
Pd       6.76202651       1.36726214      15.64473768
Pd      10.59883465      12.66424219      16.83015042
Pd       2.37165218       1.74367090      16.61078339
Pd       4.32806160       4.29963625      16.54828105
Pd      11.64424622       3.47274986      16.48977198
Pd       3.60323059      10.98973734      14.15962174
Pd       6.61522685       7.05132569      16.56797765
Pd       8.00173536       1.09324647      17.96266970
Pd       9.65306036       7.07761590      15.89746002
Pd       7.90474439       4.11946472      16.39781087
Pd       0.41079150      12.55842755      16.27062427
Pd       3.14904560       6.79223730      16.11139025
O        9.66820061       3.24391411      16.81445900
O       10.16878092      10.77729170      16.09709923
O       12.45166746      11.79496364      16.72243416
O       12.00957165       1.56952376      17.15085719
O       10.85888664       0.86070009      17.36595647
O        4.86420098       7.96380562      16.05804376
O        4.86016358       1.25007631      14.91464422
O        2.14710145      13.53344164      16.06758394
O        8.72075486      13.04690783      17.59814349
O        3.41194932      10.76504856      16.18980253
O        3.89581146       0.85705772      17.66772203
O        2.61963938       3.60406009      17.21207180
O        8.31229149       6.14050719      17.04875504
O        6.90927835       8.93076611      17.25363861
O        6.09022430       5.12157912      16.03970868
O       13.58126981       3.36572986      16.03724078
O       11.34847505       5.45944622      16.02508747
O       13.64687306       8.77217763      16.02260716
O        7.16049906       2.88343117      18.12402233
O        5.53117502      11.75686288      17.36818204
