115
Lattice="13.75323 0.0 0.0 0.0 13.75323 0.0 0.0 0.0 23.89" Properties=species:S:1:pos:R:3 entry_id=27 rank=9 energy=-573.5520629882812 parent_id=26 pbc="T T F"
Pd       0.00000000       0.00000000      10.00000000
Pd       2.75064538       0.00000000      10.00000000
Pd       5.50129076       0.00000000      10.00000000
Pd       8.25193614       0.00000000      10.00000000
Pd      11.00258152       0.00000000      10.00000000
Pd       0.00000000       2.75064538      10.00000000
Pd       2.75064538       2.75064538      10.00000000
Pd       5.50129076       2.75064538      10.00000000
Pd       8.25193614       2.75064538      10.00000000
Pd      11.00258152       2.75064538      10.00000000
Pd       0.00000000       5.50129076      10.00000000
Pd       2.75064538       5.50129076      10.00000000
Pd       5.50129076       5.50129076      10.00000000
Pd       8.25193614       5.50129076      10.00000000
Pd      11.00258152       5.50129076      10.00000000
Pd       0.00000000       8.25193614      10.00000000
Pd       2.75064538       8.25193614      10.00000000
Pd       5.50129076       8.25193614      10.00000000
Pd       8.25193614       8.25193614      10.00000000
Pd      11.00258152       8.25193614      10.00000000
Pd       0.00000000      11.00258152      10.00000000
Pd       2.75064538      11.00258152      10.00000000
Pd       5.50129076      11.00258152      10.00000000
Pd       8.25193614      11.00258152      10.00000000
Pd      11.00258152      11.00258152      10.00000000
Pd       1.36806473       1.38366590      11.99479035
Pd       4.09585853       1.36526793      11.99024772
Pd       6.85668185       1.36529876      11.98068110
Pd       9.57512057       1.39592898      11.89594876
Pd      12.38684272       1.37174114      11.92044161
Pd       1.38855688       4.09263451      11.98733785
Pd       4.12488325       4.13139350      11.95948779
Pd       6.86196770       4.13263548      11.97233697
Pd       9.56728621       4.13975942      11.94281254
Pd      12.36578195       4.13265160      11.93417299
Pd       1.37110082       6.89256210      11.94010419
Pd       4.13935064       6.87026939      11.96482277
Pd       6.87097415       6.85831372      11.95140951
Pd       9.64205429       6.82915781      11.94515418
Pd      12.39111484       6.85622887      11.94896407
Pd       1.37791622       9.64979299      11.98542564
Pd       4.11777592       9.66324146      11.95099537
Pd       6.89476706       9.64088005      11.95142944
Pd       9.64982872       9.59779534      11.89439304
Pd      12.42487279       9.60955999      11.94161946
Pd       1.37185765      12.36951301      11.99034545
Pd       4.10257124      12.40224095      11.98926522
Pd       6.86816975      12.39901143      11.97280504
Pd       9.63028672      12.36702810      11.91406436
Pd      12.36979240      12.34760847      11.97506968
Pd      13.62789893       0.00566752      13.93983494
Pd       2.59882961       0.00366863      14.04270363
Pd       5.54083965      10.99960073      13.95418727
Pd       8.22563153       0.02341732      14.03173409
Pd      10.94663747      13.75009783      13.93114683
Pd       0.05009912       2.73213172      14.06113491
Pd       2.81219413       2.76312313      14.08647206
Pd       5.57504970       2.84989585      13.91471325
Pd       8.27347841       2.79695468      13.96313301
Pd      11.06236596       2.74585992      13.82861408
Pd       0.02426771       5.51258784      13.88255973
Pd       2.77978767       5.48526731      13.94702471
Pd       5.54373811       5.52191143      14.03527613
Pd       8.28325816       5.53494636      13.99380283
Pd      11.00851667       5.44992349      14.04841899
Pd       0.03806539       8.26410289      14.02394582
Pd       2.73931641       8.25341610      13.90008940
Pd       5.46337458       8.26704067      13.99627918
Pd       8.22356719       8.27151064      13.94072554
Pd      11.03823865       8.24854114      13.93265060
Pd       0.00318878      11.01945930      14.04155333
Pd       1.54680986       9.62276044      16.09165841
Pd       8.25211540      11.02258597      13.88713768
Pd       6.92007643      12.23925332      15.91666282
Pd      10.95551262      11.02519891      13.91322699
Pd      12.72554665       6.75350199      16.08876003
Pd       8.46599328       9.73737278      16.30953825
Pd       3.52561853      12.76180598      16.66506961
Pd       1.23054640       4.90157231      16.12180911
Pd      11.97671205       9.67256513      16.08355119
Pd       9.68952940       1.55623126      15.75490976
Pd       5.20121737       1.90449429      17.09275493
Pd       5.05674135       9.94196059      16.57135680
Pd       5.42017003      13.69971209      14.06123950
Pd      10.50284209      12.49865209      16.71566454
Pd       1.93148970       1.87408434      16.66464601
Pd       4.20027257       4.42837873      16.50002539
Pd      11.83844846       3.22198209      16.54363759
Pd       2.81599255      11.01748178      14.01344184
Pd       6.55299031       7.11181960      16.50402257
Pd       7.70150376       0.81476909      17.18048541
Pd       9.70559453       7.17304015      15.89333490
Pd       7.97642127       4.21266683      16.44553545
Pd       0.15093483      12.52721021      16.33144106
Pd       2.98456785       6.92394780      16.18687339
O        9.77644593       3.24546288      16.85069879
O       10.19709718      10.64839717      15.91211599
O       12.32083642      11.63041500      16.92470059
O       12.03648961       1.31738208      17.23754485
O       10.80804408       0.68421202      17.33734010
O        4.75904737       7.98576190      16.03095310
O        4.70281989       1.54478356      15.13523180
O        1.76773628      13.62466290      16.03552057
O        8.50070489      12.80368574      17.11075174
O        3.20651209      10.76337511      16.06669749
O        3.55758509       0.91101415      17.42115729
O        2.49226986       3.73299167      17.20968577
O        8.30948030       6.23131466      16.94405245
O        6.82395049       9.02485211      17.08505567
O        6.04532744       5.16493648      16.05696312
O        0.12175388       3.03272205      16.10668303
O       11.62671991       5.14400492      15.98052641
O       13.61839440       8.55305136      16.26556594
O        6.99364648       2.62169942      17.33747657
O        5.29608125      11.85777558      17.11901721
