115
Lattice="13.75323 0.0 0.0 0.0 13.75323 0.0 0.0 0.0 23.89" Properties=species:S:1:pos:R:3 entry_id=17 rank=11 energy=-572.293212890625 parent_id=16 pbc="T T F"
Pd       0.00000000       0.00000000      10.00000000
Pd       2.75064538       0.00000000      10.00000000
Pd       5.50129076       0.00000000      10.00000000
Pd       8.25193614       0.00000000      10.00000000
Pd      11.00258152       0.00000000      10.00000000
Pd       0.00000000       2.75064538      10.00000000
Pd       2.75064538       2.75064538      10.00000000
Pd       5.50129076       2.75064538      10.00000000
Pd       8.25193614       2.75064538      10.00000000
Pd      11.00258152       2.75064538      10.00000000
Pd       0.00000000       5.50129076      10.00000000
Pd       2.75064538       5.50129076      10.00000000
Pd       5.50129076       5.50129076      10.00000000
Pd       8.25193614       5.50129076      10.00000000
Pd      11.00258152       5.50129076      10.00000000
Pd       0.00000000       8.25193614      10.00000000
Pd       2.75064538       8.25193614      10.00000000
Pd       5.50129076       8.25193614      10.00000000
Pd       8.25193614       8.25193614      10.00000000
Pd      11.00258152       8.25193614      10.00000000
Pd       0.00000000      11.00258152      10.00000000
Pd       2.75064538      11.00258152      10.00000000
Pd       5.50129076      11.00258152      10.00000000
Pd       8.25193614      11.00258152      10.00000000
Pd      11.00258152      11.00258152      10.00000000
Pd       1.38719969       1.36165414      12.00648785
Pd       4.11001806       1.31357936      12.01920261
Pd       6.83880210       1.34172547      12.05606254
Pd       9.57512057       1.39592898      11.89594876
Pd      12.38684272       1.37174114      11.92044161
Pd       1.34752237       4.08564374      11.96312393
Pd       4.12242438       4.09906553      11.92580393
Pd       6.84510169       4.12794963      11.98708125
Pd       9.56728621       4.13975942      11.94281254
Pd      12.36578195       4.13265160      11.93417299
Pd       1.37110082       6.89256210      11.94010419
Pd       4.13935064       6.87026939      11.96482277
Pd       6.87097415       6.85831372      11.95140951
Pd       9.64205429       6.82915781      11.94515418
Pd      12.39111484       6.85622887      11.94896407
Pd       1.37701717       9.63324133      11.95468012
Pd       4.11777592       9.66324146      11.95099537
Pd       6.89476706       9.64088005      11.95142944
Pd       9.64982872       9.59779534      11.89439304
Pd      12.42487279       9.60955999      11.94161946
Pd       1.36508659      12.35828259      11.94742588
Pd       4.09555277      12.34929736      11.96190788
Pd       6.86816975      12.39901143      11.97280504
Pd       9.63028672      12.36702810      11.91406436
Pd      12.36253668      12.35230742      11.89487929
Pd      13.69594220      13.72560266      13.86850485
Pd       2.68239698      13.54987875      14.05459349
Pd       5.47706840      13.27562737      14.10485185
Pd       8.30884878      13.48330528      14.03095272
Pd      10.99111900      13.63555532      13.93048100
Pd      13.72555513       2.72471506      14.05943718
Pd       2.69418569       2.71266375      14.04315332
Pd       5.40543669       2.89594054      13.95394701
Pd       8.26364246       2.79124399      13.91244112
Pd      11.01067788       2.67436558      13.84520844
Pd       0.04482676       5.57648171      13.92161698
Pd       2.77282974       5.46547146      13.80215877
Pd       5.52356505       5.57706580      14.05952551
Pd       8.26325029       5.54994936      14.01056604
Pd      10.98512721       5.42448900      13.97797031
Pd       0.04363852       8.48869714      14.08005928
Pd       2.72986960       8.32021757      13.94034113
Pd       5.46815230       8.38322178      14.04543986
Pd       8.22571879       8.37025432      13.99375618
Pd      10.99211669       8.30012460      13.91279086
Pd      12.46145115      11.19660664      14.26999204
Pd       1.39159091      10.97087086      14.29269451
Pd       6.88402236      10.86582148      14.32061555
Pd       7.36927263      12.38833653      16.42181479
Pd       9.70685877      10.96341160      14.22041861
Pd      12.54413507       6.72013751      16.01779344
Pd       8.52728257       9.65118648      16.59341225
Pd       4.07977950      12.73270879      16.93689098
Pd       1.47994458       4.61049359      15.94092227
Pd      11.83062946       9.43170630      16.22122802
Pd       9.57930955       1.40633997      15.77106550
Pd       5.60120398       2.00098514      17.92629834
Pd       5.40267410       9.88712335      16.81287218
Pd       6.85654825       1.33491525      15.69866983
Pd      10.64483795      12.54905544      16.81475809
Pd       2.55128910       1.74930266      16.66297190
Pd       4.47960346       4.24066905      16.58493764
Pd      11.78814110       3.25688735      16.48708087
Pd       4.06097993      10.89046400      14.27521228
Pd       6.70902145       6.98052639      16.62256882
Pd       8.15193533       1.02228716      18.01465331
Pd       9.68214703       7.11358902      15.92155842
Pd       8.05891840       4.04607174      16.42502805
Pd       0.54018773      12.73502735      16.23201089
Pd       3.37663657       6.65547859      15.99750068
O        9.80467105       3.11059890      16.85472593
O       10.21028481      10.61680283      16.23784252
O       12.51027878      11.93245857      16.22312202
O       12.13926935       1.36241327      17.11592977
O       10.95377474       0.71252836      17.34092713
O        4.98270186       7.95404246      16.10298482
O        4.96384768       1.25043951      14.98793757
O        2.35356189      13.55429804      16.14725516
O        8.84647580      12.94965133      17.70516319
O        3.76279648      10.87097319      16.25859815
O        4.04914476       0.86550331      17.77380734
O        2.73227839       3.62438050      17.22069260
O        8.41897201       6.07636362      17.08272496
O        6.98878864       8.80867972      17.41839160
O        6.23525203       5.05083229      16.04787908
O       13.72785891       3.20145435      16.02842579
O       11.42633264       5.13925524      15.95459930
O       13.49854999       8.40369083      16.11832313
O        7.34602396       2.83134924      18.17352418
O        5.76683053      11.76054153      17.51286681
