115
Lattice="13.75323 0.0 0.0 0.0 13.75323 0.0 0.0 0.0 23.89" Properties=species:S:1:pos:R:3 entry_id=5 rank=33 energy=-571.3328857421875 parent_id=4 pbc="T T F"
Pd       0.00000000       0.00000000      10.00000000
Pd       2.75064538       0.00000000      10.00000000
Pd       5.50129076       0.00000000      10.00000000
Pd       8.25193614       0.00000000      10.00000000
Pd      11.00258152       0.00000000      10.00000000
Pd       0.00000000       2.75064538      10.00000000
Pd       2.75064538       2.75064538      10.00000000
Pd       5.50129076       2.75064538      10.00000000
Pd       8.25193614       2.75064538      10.00000000
Pd      11.00258152       2.75064538      10.00000000
Pd       0.00000000       5.50129076      10.00000000
Pd       2.75064538       5.50129076      10.00000000
Pd       5.50129076       5.50129076      10.00000000
Pd       8.25193614       5.50129076      10.00000000
Pd      11.00258152       5.50129076      10.00000000
Pd       0.00000000       8.25193614      10.00000000
Pd       2.75064538       8.25193614      10.00000000
Pd       5.50129076       8.25193614      10.00000000
Pd       8.25193614       8.25193614      10.00000000
Pd      11.00258152       8.25193614      10.00000000
Pd       0.00000000      11.00258152      10.00000000
Pd       2.75064538      11.00258152      10.00000000
Pd       5.50129076      11.00258152      10.00000000
Pd       8.25193614      11.00258152      10.00000000
Pd      11.00258152      11.00258152      10.00000000
Pd       1.31550547       1.41013361      12.03663291
Pd       4.07667047       1.40152169      11.92198808
Pd       6.82853497       1.38495099      11.92533745
Pd       9.57512057       1.39592898      11.89594876
Pd      12.38684272       1.37174114      11.92044161
Pd       1.37101591       4.11484919      12.00524367
Pd       4.08760843       4.15649836      11.98138466
Pd       6.82105268       4.14972307      11.97477095
Pd       9.56728621       4.13975942      11.94281254
Pd      12.36578195       4.13265160      11.93417299
Pd       1.37110082       6.89256210      11.94010419
Pd       4.13935064       6.87026939      11.96482277
Pd       6.87097415       6.85831372      11.95140951
Pd       9.64205429       6.82915781      11.94515418
Pd      12.39111484       6.85622887      11.94896407
Pd       1.34392357       9.69290315      11.99975757
Pd       4.11777592       9.66324146      11.95099537
Pd       6.89476706       9.64088005      11.95142944
Pd       9.64982872       9.59779534      11.89439304
Pd      12.42487279       9.60955999      11.94161946
Pd       1.33342101      12.44072865      12.00712735
Pd       4.10737204      12.38836728      11.96145710
Pd       6.86816975      12.39901143      11.97280504
Pd       9.63028672      12.36702810      11.91406436
Pd      12.39951216      12.32677194      12.00813437
Pd      13.68466416      13.73356274      14.13135414
Pd       2.70659025       0.11618155      13.97939254
Pd       5.51881886      13.73284103      13.97010156
Pd       8.24668319       0.01468970      13.83259488
Pd      10.97893154       0.00960240      13.83966414
Pd      13.65836121       2.71246855      14.07580806
Pd       2.67969614       2.88177481      14.11035267
Pd       5.50912893       2.79459064      13.91097694
Pd       8.19592733       2.77743273      13.87908483
Pd      10.97194083       2.71268085      13.84186844
Pd       0.02486673       5.43642669      13.95257798
Pd       2.72257079       5.60400527      13.99732070
Pd       5.46765343       5.49378196      14.09626766
Pd       8.19836227       5.51501292      13.98076825
Pd      11.00537577       5.38240357      13.92537325
Pd       0.09257620       8.22302703      13.99488527
Pd       2.76743794       8.36563361      13.89676781
Pd       5.52452412       8.21852191      14.00895275
Pd       8.26858634       8.30050979      13.94094706
Pd      11.03655436       8.18632194      13.90963276
Pd      13.67497755      11.00224897      14.38502367
Pd       2.70702342      11.16954196      13.94869017
Pd       5.46821277      10.94021498      13.94257021
Pd       8.21047973      11.09173053      14.28565439
Pd      10.93308934      10.92474577      13.89708437
Pd      12.47508678       6.50067331      16.09714135
Pd       9.04971910       9.34965296      16.35589750
Pd       2.14220584      13.05631254      16.47219418
Pd       1.29453846       6.11179665      16.37494455
Pd      12.34119743       9.20292423      16.08804706
Pd       9.46086690       1.42978021      15.68338601
Pd       4.64371341       1.49345993      16.89125963
Pd       5.64109033       9.30588155      16.64679135
Pd       4.72997249      12.37574696      16.23089309
Pd      10.61529586      12.42826929      16.21282000
Pd       1.25634162       2.40452447      16.62541058
Pd       3.89863105       4.39375830      16.38070320
Pd      11.40137702       3.17454206      16.60409996
Pd       3.14411392       9.86494890      16.19516154
Pd       6.66410736       6.60018736      16.64418994
Pd       7.34509448       0.03679529      16.40065791
Pd       9.81281556       6.87104403      15.91164600
Pd       7.56929000       3.59150116      16.50871496
Pd      13.46731607       0.14583824      17.00612739
Pd       3.75941692       7.14322520      15.97341781
O        9.40837648       2.91229121      17.01800574
O       10.73278093      10.37537690      15.96301673
O       12.62996207      12.57989532      15.84126411
O       11.65674919       1.26835529      17.41425112
O       10.48365020       0.48352066      17.21388124
O        5.06940998       7.56216607      17.41107478
O        4.19393862       1.48482673      14.85999755
O        0.43196247       1.45615472      18.13805582
O        8.57717865      12.22917356      16.10307185
O        1.62533778      11.25318360      15.79902867
O        2.74400981       1.07013467      17.14265236
O        2.04875820       4.36753008      16.90675195
O        8.24559654       5.51868215      16.09141278
O        7.49794335       8.43954887      17.09126007
O        5.83463580       4.73251619      16.13487103
O       13.33973636       3.34319576      15.98579435
O       11.10917165       5.09071235      16.00670770
O        0.16964091       7.87970097      16.10597794
O        6.58640638       1.80422547      16.93941111
O        6.16327841      11.01207615      15.88300698
