115
Lattice="13.75323 0.0 0.0 0.0 13.75323 0.0 0.0 0.0 23.89" Properties=species:S:1:pos:R:3 entry_id=3 rank=17 energy=-572.171630859375 parent_id=2 pbc="T T F"
Pd       0.00000000       0.00000000      10.00000000
Pd       2.75064538       0.00000000      10.00000000
Pd       5.50129076       0.00000000      10.00000000
Pd       8.25193614       0.00000000      10.00000000
Pd      11.00258152       0.00000000      10.00000000
Pd       0.00000000       2.75064538      10.00000000
Pd       2.75064538       2.75064538      10.00000000
Pd       5.50129076       2.75064538      10.00000000
Pd       8.25193614       2.75064538      10.00000000
Pd      11.00258152       2.75064538      10.00000000
Pd       0.00000000       5.50129076      10.00000000
Pd       2.75064538       5.50129076      10.00000000
Pd       5.50129076       5.50129076      10.00000000
Pd       8.25193614       5.50129076      10.00000000
Pd      11.00258152       5.50129076      10.00000000
Pd       0.00000000       8.25193614      10.00000000
Pd       2.75064538       8.25193614      10.00000000
Pd       5.50129076       8.25193614      10.00000000
Pd       8.25193614       8.25193614      10.00000000
Pd      11.00258152       8.25193614      10.00000000
Pd       0.00000000      11.00258152      10.00000000
Pd       2.75064538      11.00258152      10.00000000
Pd       5.50129076      11.00258152      10.00000000
Pd       8.25193614      11.00258152      10.00000000
Pd      11.00258152      11.00258152      10.00000000
Pd       1.33718778       1.39205197      12.02899252
Pd       4.06915039       1.38882390      11.99155962
Pd       6.86043062       1.37520902      11.97942852
Pd       9.57512057       1.39592898      11.89594876
Pd      12.38684272       1.37174114      11.92044161
Pd       1.36292575       4.13468327      11.99645938
Pd       4.07748646       4.13871198      12.01241181
Pd       6.82584001       4.11728785      11.98355299
Pd       9.56728621       4.13975942      11.94281254
Pd      12.36578195       4.13265160      11.93417299
Pd       1.37110082       6.89256210      11.94010419
Pd       4.13935064       6.87026939      11.96482277
Pd       6.87097415       6.85831372      11.95140951
Pd       9.64205429       6.82915781      11.94515418
Pd      12.39111484       6.85622887      11.94896407
Pd       1.40257045       9.65038100      11.94485461
Pd       4.11777592       9.66324146      11.95099537
Pd       6.89476706       9.64088005      11.95142944
Pd       9.64982872       9.59779534      11.89439304
Pd      12.42487279       9.60955999      11.94161946
Pd       1.37672247      12.42527931      11.98613389
Pd       4.10741374      12.40818704      11.98862841
Pd       6.86816975      12.39901143      11.97280504
Pd       9.63028672      12.36702810      11.91406436
Pd      12.41555611      12.35358659      11.94090957
Pd      13.63166754      13.63691785      14.06198795
Pd       2.59933476       0.10993460      14.07937989
Pd       5.66341708      13.73725628      13.94095521
Pd       8.38276358       0.00293111      14.06901728
Pd      11.00388214       0.06935185      13.79986308
Pd      13.62995317       2.63370938      14.01162128
Pd       2.63717339       2.87154535      14.12455609
Pd       5.42712758       2.70779891      13.94486727
Pd       8.25293521       2.70094983      13.98006610
Pd      10.92120520       2.74513427      13.95672262
Pd      13.72605439       5.52737500      13.99851247
Pd       2.74787682       5.62470650      14.02638083
Pd       5.47286401       5.45767551      14.11710236
Pd       8.28025569       5.42602782      14.01659155
Pd      10.96663894       5.49573029      13.90925030
Pd       0.09628070       8.25625465      13.92356924
Pd       2.83245727       8.31892484      13.95020620
Pd       5.58961850       8.26424765      13.98035018
Pd       8.31413149       8.23557590      13.93321579
Pd      11.03310730       8.29726521      13.99830709
Pd       0.03423391      10.96542231      13.99537999
Pd       2.79193648      11.09113679      13.97064135
Pd       5.49897357      10.96145101      13.92339176
Pd       8.21562803      11.01006376      13.96193228
Pd      10.99615689      11.06818746      13.87379845
Pd      12.52918592       7.06793377      16.06199382
Pd       9.47486165       9.84593782      16.22950876
Pd       1.95462263      12.49815035      16.60338224
Pd       1.63236425       7.39651529      16.44472997
Pd      12.34876251       9.89147365      16.04146908
Pd       9.41140703       1.95169520      16.46681204
Pd       4.40350263       0.80283193      17.27906628
Pd       6.19298254       9.89197279      16.39392819
Pd       4.60013976      12.02522780      16.22800900
Pd      11.28290743      13.26066881      16.39190798
Pd       1.31045156       4.77984938      16.39064428
Pd       3.96282353       4.50706976      16.38937185
Pd      11.63102593       3.84652984      16.50945984
Pd       3.08257097       9.75557475      16.36853425
Pd       7.10595215       6.85168354      16.08999485
Pd       7.12443298      13.02912587      16.47963907
Pd       9.70603273       7.12894814      16.29163706
Pd       6.91468486       2.84570161      16.36672184
Pd       0.87453190       1.25368653      16.23476331
Pd       4.34244852       7.12196591      16.02353485
O        9.85142033       3.63819738      17.21866886
O       10.92442270      11.26687714      15.94494741
O       13.35500551      13.40142195      16.10806252
O       12.34083108       2.11205032      17.20567110
O       11.29529766       1.23375318      17.43520214
O        4.66810959       8.84719083      17.07027506
O        4.22203278       0.10109878      15.32384813
O        2.03245809       2.82240266      16.11096900
O        9.16340840      13.74452530      16.08314568
O        1.53711221      10.83038404      15.67957024
O        2.44326461       0.41474274      17.49110356
O        2.81017098       5.93611454      17.20771456
O        6.99047839       4.85324513      15.58370873
O        8.24258634       8.38026776      16.86164159
O        4.94413198       2.92037543      15.91387654
O       13.40537612       4.04732859      15.54883806
O       11.10085029       5.71448719      15.96872567
O        0.05931765       8.55084536      16.04377666
O        6.41034213       1.02087787      17.15230819
O        7.72477456      11.14584184      16.01319108
