115
Lattice="13.75323 0.0 0.0 0.0 13.75323 0.0 0.0 0.0 23.89" Properties=species:S:1:pos:R:3 entry_id=21 rank=13 energy=-573.3934326171875 parent_id=19 pbc="T T F"
Pd       0.00000000       0.00000000      10.00000000
Pd       2.75064538       0.00000000      10.00000000
Pd       5.50129076       0.00000000      10.00000000
Pd       8.25193614       0.00000000      10.00000000
Pd      11.00258152       0.00000000      10.00000000
Pd       0.00000000       2.75064538      10.00000000
Pd       2.75064538       2.75064538      10.00000000
Pd       5.50129076       2.75064538      10.00000000
Pd       8.25193614       2.75064538      10.00000000
Pd      11.00258152       2.75064538      10.00000000
Pd       0.00000000       5.50129076      10.00000000
Pd       2.75064538       5.50129076      10.00000000
Pd       5.50129076       5.50129076      10.00000000
Pd       8.25193614       5.50129076      10.00000000
Pd      11.00258152       5.50129076      10.00000000
Pd       0.00000000       8.25193614      10.00000000
Pd       2.75064538       8.25193614      10.00000000
Pd       5.50129076       8.25193614      10.00000000
Pd       8.25193614       8.25193614      10.00000000
Pd      11.00258152       8.25193614      10.00000000
Pd       0.00000000      11.00258152      10.00000000
Pd       2.75064538      11.00258152      10.00000000
Pd       5.50129076      11.00258152      10.00000000
Pd       8.25193614      11.00258152      10.00000000
Pd      11.00258152      11.00258152      10.00000000
Pd       1.36897624       1.42503721      11.93245142
Pd       4.14725576       1.43508450      11.99719820
Pd       6.87203496       1.38123918      12.00220117
Pd       9.57512057       1.39592898      11.89594876
Pd      12.38684272       1.37174114      11.92044161
Pd       1.40066875       4.15736687      12.00863705
Pd       4.12025413       4.11647144      12.03643082
Pd       6.85216312       4.11465572      11.99059533
Pd       9.56728621       4.13975942      11.94281254
Pd      12.36578195       4.13265160      11.93417299
Pd       1.37110082       6.89256210      11.94010419
Pd       4.13935064       6.87026939      11.96482277
Pd       6.87097415       6.85831372      11.95140951
Pd       9.64205429       6.82915781      11.94515418
Pd      12.39111484       6.85622887      11.94896407
Pd       1.39387126       9.64839946      11.96366112
Pd       4.11777592       9.66324146      11.95099537
Pd       6.89476706       9.64088005      11.95142944
Pd       9.64982872       9.59779534      11.89439304
Pd      12.42487279       9.60955999      11.94161946
Pd       1.36110877      12.37492601      11.92951527
Pd       4.11184929      12.40428483      11.96874219
Pd       6.86816975      12.39901143      11.97280504
Pd       9.63028672      12.36702810      11.91406436
Pd      12.37008232      12.34651311      11.90629279
Pd      13.64866558      13.66434007      13.89417100
Pd       2.62397596       0.10201328      13.83214971
Pd       5.50534635       0.00112056      14.01301745
Pd       8.26470889       0.01083951      14.00187327
Pd      10.97652714      13.70883197      13.83732445
Pd       0.05775888       2.66079016      13.93009861
Pd       2.87887044       2.84554685      14.16549334
Pd       5.68346781       2.77402041      14.08565438
Pd       8.38231518       2.76278220      14.03668865
Pd      11.05714177       2.71709102      13.86798518
Pd      13.70700487       5.55927113      14.02854550
Pd       2.74785771       5.61419324      14.03098200
Pd       5.44582493       5.49595475      14.02286029
Pd       8.20022547       5.51380844      13.97288087
Pd      10.93765911       5.44304078      13.92832374
Pd       0.01333863       8.27721467      13.92926729
Pd       2.79703218       8.32575915      13.93722989
Pd       5.58823551       8.24525847      13.92669417
Pd       8.34475258       8.24373193      13.98273000
Pd      11.04701950       8.19471099      14.12133899
Pd      13.70324513      10.97605116      13.98102208
Pd       2.60689238      11.08464684      14.01551185
Pd       5.41027510      11.01110111      13.97787445
Pd       8.17643028      11.00176594      14.04216516
Pd      10.94776100      10.97967214      13.88111360
Pd      12.43497429       6.78389465      16.26767129
Pd       9.99265643       9.75880915      16.29383066
Pd       3.49297436      12.83351147      16.07161166
Pd       1.46268901       7.18011298      15.93583007
Pd      12.70285687       9.62457014      16.17798332
Pd      10.02661216       1.29295050      15.83947037
Pd       5.93797063       0.85115513      16.82325138
Pd       7.05687359       8.46044318      16.46629427
Pd       6.31744750      11.42743745      16.52897988
Pd      12.00742616      13.09423453      16.61181949
Pd       1.63598827       4.51852482      16.33467365
Pd       4.80321742       3.95140815      16.52053446
Pd      11.95119836       3.43207940      16.47474606
Pd       3.86955479       9.78391470      16.06806520
Pd       6.79477985       5.79535338      16.29131560
Pd       8.29650878      13.07909828      16.83369428
Pd       9.66501259       6.63457674      16.39678093
Pd       8.28338677       3.00615787      16.98180408
Pd       1.22323825       0.95491487      16.02628830
Pd       4.15564524       6.65494288      16.38915841
O       10.25976967       2.73294300      17.26645766
O       11.44861778      11.17133634      15.87783993
O        0.08841877      13.06935974      15.84047230
O       13.21130939       1.86938043      17.08962328
O       12.60088578       0.88134653      17.78711678
O        5.15669468       8.31990572      15.97131446
O        4.38842240       0.77745603      15.63148137
O        2.31444407       2.56036308      16.12444011
O       10.20769765      13.54760832      17.21981298
O        2.51193371      11.15615522      16.10934654
O        5.15801610      12.79469726      17.39798428
O        3.32627729       5.05719071      17.17896151
O        8.41973049       5.02418863      17.05669489
O        8.88635987       8.33883323      17.07806169
O        6.32153887       2.73139706      16.17794129
O       13.64021910       4.00936074      15.50695080
O       11.12755321       5.28423384      15.96269619
O       13.72123287       8.12442805      16.90656071
O        7.72781634       1.06398177      17.65857681
O        8.35894237      11.20255715      16.11975226
