115
Lattice="13.75323 0.0 0.0 0.0 13.75323 0.0 0.0 0.0 23.89" Properties=species:S:1:pos:R:3 entry_id=15 rank=3 energy=-573.5396728515625 parent_id=14 pbc="T T F"
Pd       0.00000000       0.00000000      10.00000000
Pd       2.75064538       0.00000000      10.00000000
Pd       5.50129076       0.00000000      10.00000000
Pd       8.25193614       0.00000000      10.00000000
Pd      11.00258152       0.00000000      10.00000000
Pd       0.00000000       2.75064538      10.00000000
Pd       2.75064538       2.75064538      10.00000000
Pd       5.50129076       2.75064538      10.00000000
Pd       8.25193614       2.75064538      10.00000000
Pd      11.00258152       2.75064538      10.00000000
Pd       0.00000000       5.50129076      10.00000000
Pd       2.75064538       5.50129076      10.00000000
Pd       5.50129076       5.50129076      10.00000000
Pd       8.25193614       5.50129076      10.00000000
Pd      11.00258152       5.50129076      10.00000000
Pd       0.00000000       8.25193614      10.00000000
Pd       2.75064538       8.25193614      10.00000000
Pd       5.50129076       8.25193614      10.00000000
Pd       8.25193614       8.25193614      10.00000000
Pd      11.00258152       8.25193614      10.00000000
Pd       0.00000000      11.00258152      10.00000000
Pd       2.75064538      11.00258152      10.00000000
Pd       5.50129076      11.00258152      10.00000000
Pd       8.25193614      11.00258152      10.00000000
Pd      11.00258152      11.00258152      10.00000000
Pd       1.40595869       1.41275121      12.02941609
Pd       4.12510957       1.40020276      12.03646361
Pd       6.84717597       1.34981238      11.99816035
Pd       9.57512057       1.39592898      11.89594876
Pd      12.38684272       1.37174114      11.92044161
Pd       1.36489542       4.15569362      12.00067331
Pd       4.08333826       4.10299999      12.00823859
Pd       6.82792094       4.11308379      11.96259777
Pd       9.56728621       4.13975942      11.94281254
Pd      12.36578195       4.13265160      11.93417299
Pd       1.37110082       6.89256210      11.94010419
Pd       4.13935064       6.87026939      11.96482277
Pd       6.87097415       6.85831372      11.95140951
Pd       9.64205429       6.82915781      11.94515418
Pd      12.39111484       6.85622887      11.94896407
Pd       1.38677478       9.69206839      11.98580259
Pd       4.11777592       9.66324146      11.95099537
Pd       6.89476706       9.64088005      11.95142944
Pd       9.64982872       9.59779534      11.89439304
Pd      12.42487279       9.60955999      11.94161946
Pd       1.40106709      12.42163475      11.99912769
Pd       4.12539039      12.40471537      12.01669687
Pd       6.86816975      12.39901143      11.97280504
Pd       9.63028672      12.36702810      11.91406436
Pd      12.38666742      12.35797618      11.93786508
Pd      13.73168923      13.74723293      13.92035475
Pd       2.75000806       0.17479339      14.16478883
Pd       5.56178320      13.69695791      14.06658781
Pd       8.32317742       0.05722278      13.97571415
Pd      11.03439176       0.00428726      13.88434536
Pd      13.75171798       2.75561970      13.97153729
Pd       2.80941395       2.90398990      14.17837824
Pd       5.56813342       2.72994262      14.03157197
Pd       8.28342812       2.73816639      13.92226329
Pd      11.02935061       2.75307985      13.82700064
Pd      13.61549497       5.63097935      14.06841231
Pd       2.64596952       5.60899669      13.99028263
Pd       5.40653687       5.46510031      13.99275749
Pd       8.16163412       5.42148785      14.02217807
Pd      10.86879110       5.47898582      13.95727161
Pd       0.00172351       8.34065957      13.92259139
Pd       2.76700806       8.34562894      13.95958732
Pd       5.53124323       8.22148765      13.97299816
Pd       8.31275236       8.12440337      13.96966227
Pd      11.06506668       8.20963101      13.92255411
Pd      13.71351267      11.05512768      14.03554905
Pd       2.68408185      11.11066442      14.02143291
Pd       5.47609946      10.95562839      14.09124079
Pd       8.19606856      10.81092640      13.91750397
Pd      10.89819051      10.95950011      13.95142962
Pd      12.05812028       6.84788471      16.28394652
Pd       9.39730764      11.05767724      17.66354957
Pd       4.34560835      12.02693470      16.56215112
Pd       1.24092927       7.32651166      16.00328265
Pd      12.59582266       9.61491329      16.22111005
Pd       9.88894330       1.44736755      15.78565304
Pd       5.88121005       1.00763695      16.76414284
Pd       6.97756066       9.44081037      16.02388578
Pd       7.37337375      12.36283222      16.32308283
Pd      12.01450812      13.12342877      16.74240328
Pd       1.51547340       4.72258771      16.40208244
Pd       4.63990687       4.24242405      16.49035865
Pd      11.76195772       3.60118190      16.46435795
Pd       4.18299042       9.42220005      16.23936584
Pd       6.68605913       6.55491531      16.24341997
Pd       8.91765248       0.21602066      17.83822331
Pd       9.89740887       8.79638996      16.13352141
Pd       7.99596713       3.27917623      16.70662728
Pd       1.08401713       1.30868145      16.09828951
Pd       3.91199138       6.84386590      15.97846917
O        9.97930730       2.95132858      17.12951623
O       12.09271720      11.39764752      15.57864050
O        0.02315815      13.45075133      15.90385843
O       12.94175140       2.04531806      17.18300575
O       12.25977270       1.05244384      17.82005550
O        5.55107546       8.09111277      16.90823707
O        4.25397433       0.19601668      15.69631914
O        2.29202514       2.81110382      16.18721054
O       10.39740353      12.70502521      17.87827320
O        2.86247684      10.88143891      16.00491918
O        5.85772819      12.89299055      17.47993187
O        3.20130394       5.35744487      17.19654787
O        8.05406698       5.15658825      16.00223555
O        8.48660620       9.38013059      17.42175401
O        6.02560846       2.91730435      16.06827263
O       13.53138044       4.12966209      15.56967753
O       10.90502643       5.32443283      15.94353299
O       13.40347518       8.04933149      17.04533419
O        7.52334707       1.59686114      17.77135652
O        8.90951673      12.23085682      15.12854672
