115
Lattice="13.75323 0.0 0.0 0.0 13.75323 0.0 0.0 0.0 23.89" Properties=species:S:1:pos:R:3 entry_id=0 rank=22 energy=-568.3948364257812 parent_id=-1 pbc="T T F"
Pd       0.00000000       0.00000000      10.00000000
Pd       2.75064538       0.00000000      10.00000000
Pd       5.50129076       0.00000000      10.00000000
Pd       8.25193614       0.00000000      10.00000000
Pd      11.00258152       0.00000000      10.00000000
Pd       0.00000000       2.75064538      10.00000000
Pd       2.75064538       2.75064538      10.00000000
Pd       5.50129076       2.75064538      10.00000000
Pd       8.25193614       2.75064538      10.00000000
Pd      11.00258152       2.75064538      10.00000000
Pd       0.00000000       5.50129076      10.00000000
Pd       2.75064538       5.50129076      10.00000000
Pd       5.50129076       5.50129076      10.00000000
Pd       8.25193614       5.50129076      10.00000000
Pd      11.00258152       5.50129076      10.00000000
Pd       0.00000000       8.25193614      10.00000000
Pd       2.75064538       8.25193614      10.00000000
Pd       5.50129076       8.25193614      10.00000000
Pd       8.25193614       8.25193614      10.00000000
Pd      11.00258152       8.25193614      10.00000000
Pd       0.00000000      11.00258152      10.00000000
Pd       2.75064538      11.00258152      10.00000000
Pd       5.50129076      11.00258152      10.00000000
Pd       8.25193614      11.00258152      10.00000000
Pd      11.00258152      11.00258152      10.00000000
Pd       1.34624065       1.38084978      12.08140785
Pd       4.09710561       1.39053112      12.02480126
Pd       6.82981913       1.36956252      12.02879099
Pd       9.57512057       1.39592898      11.89594876
Pd      12.38684272       1.37174114      11.92044161
Pd       1.36477352       4.11653928      11.98603050
Pd       4.10062915       4.12336630      12.03938155
Pd       6.80964623       4.10127250      12.01947617
Pd       9.56728621       4.13975942      11.94281254
Pd      12.36578195       4.13265160      11.93417299
Pd       1.37110082       6.89256210      11.94010419
Pd       4.13935064       6.87026939      11.96482277
Pd       6.87097415       6.85831372      11.95140951
Pd       9.64205429       6.82915781      11.94515418
Pd      12.39111484       6.85622887      11.94896407
Pd       1.35620969       9.70033215      11.99805885
Pd       4.11777592       9.66324146      11.95099537
Pd       6.89476706       9.64088005      11.95142944
Pd       9.64982872       9.59779534      11.89439304
Pd      12.42487279       9.60955999      11.94161946
Pd       1.38044248      12.43192362      12.05375117
Pd       4.10023038      12.39284600      12.00406636
Pd       6.86816975      12.39901143      11.97280504
Pd       9.63028672      12.36702810      11.91406436
Pd      12.44376962      12.34106555      11.97881769
Pd      13.68382049      13.72511372      14.13498615
Pd       2.74103263       0.13691759      14.18796606
Pd       5.57274728      13.58410598      14.03501841
Pd       8.32209512       0.10876086      14.02899995
Pd      11.00944114       0.06537976      13.76260103
Pd      13.56158663       2.74997302      13.99054635
Pd       2.60935587       2.89250157      14.11901408
Pd       5.38702573       2.66349664      14.17479580
Pd       8.19634338       2.74741975      13.98471364
Pd      10.87230824       2.71369468      13.87798890
Pd       0.02065369       5.52366142      13.94647569
Pd       2.72278975       5.58687916      14.00787127
Pd       5.45643458       5.48201072      14.06968553
Pd       8.27768126       5.48391809      14.03244750
Pd      11.00184609       5.39658954      13.97228885
Pd       0.04972002       8.32458546      13.97807158
Pd       2.75360481       8.29352257      13.88783821
Pd       5.49570308       8.26291873      13.94879387
Pd       8.40019808       8.22067596      13.82456253
Pd      11.08215574       8.19516629      13.93713356
Pd      13.58926021      10.96822561      14.50062898
Pd       2.74692015      11.08186010      14.01332886
Pd       5.55693784      10.90584503      13.95548967
Pd       8.34037857      11.01505671      13.92443956
Pd      11.03613210      10.88292059      13.82899530
Pd      12.43756946       6.59288969      16.10452361
Pd       8.74022321       9.62197567      16.23413059
Pd       2.03066388      12.72900713      16.64118175
Pd       1.41924048       7.01589854      16.25552544
Pd      11.87895344       9.39105604      16.30172640
Pd       8.32080721       1.37675089      16.95473923
Pd       4.98992611       0.37829647      17.18452318
Pd       5.65051859       9.65135690      17.05435700
Pd       4.39386444      11.78167698      16.13855848
Pd      10.86720558      12.42524669      15.91207832
Pd       0.84946087       4.28635200      16.30385072
Pd       3.88139848       4.40497381      16.31834211
Pd      11.15782897       3.15624133      16.54908605
Pd       2.99010843       9.51111983      16.27594166
Pd       7.25968031       7.14724311      16.87910779
Pd       6.97187793      11.97812357      16.16846923
Pd       9.73204483       6.98603697      15.97459806
Pd       7.44860544       3.72293687      16.42955425
Pd       1.07461841       1.49125668      16.04518590
Pd       4.09054479       7.08730545      15.90612068
O        9.23782099       3.11397167      17.10118301
O       10.39576507      10.53340358      16.84740289
O       12.86567939      12.54158646      15.65830525
O       11.40042716       1.29087784      17.22751837
O       10.36260053       0.44717512      17.13445750
O        5.25437281       7.65418918      17.37630771
O        4.40732050       1.01613501      15.22010313
O        2.39088408       1.64078205      17.53601250
O        8.88604452      12.46475320      15.43791417
O        1.53671876      10.98904828      15.78939434
O        3.00992773       0.38459080      17.70399874
O        2.31055645       5.38261762      17.01129573
O        6.98077195       5.58695721      15.66942037
O        7.53889786       8.89922248      17.78026143
O        5.52325784       3.35574332      16.08832011
O       13.14556101       2.98282220      16.01058477
O       11.03824080       5.17655450      16.05770774
O       13.54549276       8.25306833      16.06252468
O        6.93522087       0.02461254      17.15682696
O        7.07534177       8.65265638      15.26882578
