115
Lattice="13.75323 0.0 0.0 0.0 13.75323 0.0 0.0 0.0 23.89" Properties=species:S:1:pos:R:3 entry_id=11 rank=9 energy=-573.4521484375 parent_id=10 pbc="T T F"
Pd       0.00000000       0.00000000      10.00000000
Pd       2.75064538       0.00000000      10.00000000
Pd       5.50129076       0.00000000      10.00000000
Pd       8.25193614       0.00000000      10.00000000
Pd      11.00258152       0.00000000      10.00000000
Pd       0.00000000       2.75064538      10.00000000
Pd       2.75064538       2.75064538      10.00000000
Pd       5.50129076       2.75064538      10.00000000
Pd       8.25193614       2.75064538      10.00000000
Pd      11.00258152       2.75064538      10.00000000
Pd       0.00000000       5.50129076      10.00000000
Pd       2.75064538       5.50129076      10.00000000
Pd       5.50129076       5.50129076      10.00000000
Pd       8.25193614       5.50129076      10.00000000
Pd      11.00258152       5.50129076      10.00000000
Pd       0.00000000       8.25193614      10.00000000
Pd       2.75064538       8.25193614      10.00000000
Pd       5.50129076       8.25193614      10.00000000
Pd       8.25193614       8.25193614      10.00000000
Pd      11.00258152       8.25193614      10.00000000
Pd       0.00000000      11.00258152      10.00000000
Pd       2.75064538      11.00258152      10.00000000
Pd       5.50129076      11.00258152      10.00000000
Pd       8.25193614      11.00258152      10.00000000
Pd      11.00258152      11.00258152      10.00000000
Pd       1.36256693       1.43012588      11.94341770
Pd       4.13217161       1.42837486      11.99265615
Pd       6.86201085       1.36845898      11.98711771
Pd       9.57512057       1.39592898      11.89594876
Pd      12.38684272       1.37174114      11.92044161
Pd       1.39164502       4.16194414      12.01028701
Pd       4.10919741       4.11764932      12.02762153
Pd       6.85166958       4.12336561      11.98725761
Pd       9.56728621       4.13975942      11.94281254
Pd      12.36578195       4.13265160      11.93417299
Pd       1.37110082       6.89256210      11.94010419
Pd       4.13935064       6.87026939      11.96482277
Pd       6.87097415       6.85831372      11.95140951
Pd       9.64205429       6.82915781      11.94515418
Pd      12.39111484       6.85622887      11.94896407
Pd       1.39273627       9.65409908      11.95467117
Pd       4.11777592       9.66324146      11.95099537
Pd       6.89476706       9.64088005      11.95142944
Pd       9.64982872       9.59779534      11.89439304
Pd      12.42487279       9.60955999      11.94161946
Pd       1.36540715      12.38987709      11.93976157
Pd       4.10907382      12.40223680      11.97598055
Pd       6.86816975      12.39901143      11.97280504
Pd       9.63028672      12.36702810      11.91406436
Pd      12.37578319      12.35545076      11.90602387
Pd      13.64837352      13.67327647      13.91443807
Pd       2.62012650       0.11449181      13.85965197
Pd       5.50002540      13.74058128      14.01885056
Pd       8.25830979      13.73362243      13.99305709
Pd      10.97557957      13.72641968      13.83037720
Pd       0.03249480       2.67607730      13.94258931
Pd       2.84228788       2.86539999      14.15783550
Pd       5.62972112       2.75197924      14.03459679
Pd       8.35030203       2.69911712      13.96820143
Pd      11.04356282       2.73678813      13.85653700
Pd      13.70377155       5.58040092      14.03172096
Pd       2.73833362       5.61996474      14.03971429
Pd       5.43235529       5.48309975      14.01621765
Pd       8.20546191       5.44346920      14.06621384
Pd      10.94730794       5.47915805      13.92344098
Pd       0.01463741       8.29386341      13.92759927
Pd       2.79735763       8.32365265      13.92257376
Pd       5.58784770       8.23199850      13.93611489
Pd       8.34260307       8.22041829      13.98382176
Pd      11.05525861       8.25101543      14.09430914
Pd      13.70557279      10.98903856      13.96392034
Pd       2.60565820      11.07653926      14.01225019
Pd       5.40974120      10.99968253      13.98274897
Pd       8.17549585      10.98309979      14.04806018
Pd      10.95424614      11.01335618      13.88029257
Pd      12.45934854       6.87714727      16.27825433
Pd      10.03396527       9.88531467      16.32392589
Pd       3.43773173      12.74740794      16.09516296
Pd       1.45925812       7.22099160      15.93772308
Pd      12.73910848       9.70181332      16.19228130
Pd      10.03241222       1.30851367      15.82411410
Pd       5.84470499       0.82988575      16.80732812
Pd       7.06697814       8.53206450      16.48266217
Pd       6.32076281      11.43476456      16.52435454
Pd      11.98692192      13.16660653      16.64126507
Pd       1.58889605       4.56372877      16.35196964
Pd       4.71534769       3.97386873      16.50060396
Pd      11.87080746       3.51743832      16.44669034
Pd       3.83800612       9.75888314      16.07613822
Pd       6.64225317       5.88125382      16.41277500
Pd       8.25701521      13.14371492      16.82576000
Pd       9.70759056       6.87912158      16.32632454
Pd       8.14695492       2.96719624      16.78309488
Pd       1.20349596       1.01456079      16.04479520
Pd       4.11023973       6.70471785      16.42297057
O       10.13842619       2.82207894      17.17903060
O       11.48916944      11.25353854      15.87729489
O        0.06690581      13.14273953      15.87781912
O       13.15419928       1.95440250      17.07841395
O       12.55563951       0.97517556      17.79429151
O        5.17014777       8.33360997      15.98436947
O        4.29474172       0.69458657      15.61333801
O        2.30079799       2.61469808      16.13054571
O       10.17144019      13.59822838      17.23921520
O        2.43574471      11.08384321      16.11623931
O        5.11766232      12.76240352      17.40545968
O        3.27666877       5.10509379      17.20933093
O        8.30648800       4.85873494      16.10936564
O        8.89550267       8.50088165      17.10180782
O        6.18039088       2.70597989      16.10204836
O       13.59818976       4.04778845      15.50913026
O       11.11604354       5.42175313      15.96118378
O        0.00245180       8.20195922      16.92572294
O        7.64525447       1.12762182      17.62943336
O        8.37444904      11.27011009      16.11653151
