115
Lattice="13.75323 0.0 0.0 0.0 13.75323 0.0 0.0 0.0 23.89" Properties=species:S:1:pos:R:3 entry_id=10 rank=14 energy=-573.3919067382812 parent_id=9 pbc="T T F"
Pd       0.00000000       0.00000000      10.00000000
Pd       2.75064538       0.00000000      10.00000000
Pd       5.50129076       0.00000000      10.00000000
Pd       8.25193614       0.00000000      10.00000000
Pd      11.00258152       0.00000000      10.00000000
Pd       0.00000000       2.75064538      10.00000000
Pd       2.75064538       2.75064538      10.00000000
Pd       5.50129076       2.75064538      10.00000000
Pd       8.25193614       2.75064538      10.00000000
Pd      11.00258152       2.75064538      10.00000000
Pd       0.00000000       5.50129076      10.00000000
Pd       2.75064538       5.50129076      10.00000000
Pd       5.50129076       5.50129076      10.00000000
Pd       8.25193614       5.50129076      10.00000000
Pd      11.00258152       5.50129076      10.00000000
Pd       0.00000000       8.25193614      10.00000000
Pd       2.75064538       8.25193614      10.00000000
Pd       5.50129076       8.25193614      10.00000000
Pd       8.25193614       8.25193614      10.00000000
Pd      11.00258152       8.25193614      10.00000000
Pd       0.00000000      11.00258152      10.00000000
Pd       2.75064538      11.00258152      10.00000000
Pd       5.50129076      11.00258152      10.00000000
Pd       8.25193614      11.00258152      10.00000000
Pd      11.00258152      11.00258152      10.00000000
Pd       1.37537160       1.41439986      11.93141832
Pd       4.15194361       1.42813687      11.99169407
Pd       6.87987888       1.37782725      11.99906663
Pd       9.57512057       1.39592898      11.89594876
Pd      12.38684272       1.37174114      11.92044161
Pd       1.40632804       4.15129290      12.00362708
Pd       4.12809087       4.11231611      12.03480876
Pd       6.85637590       4.11392377      11.99146055
Pd       9.56728621       4.13975942      11.94281254
Pd      12.36578195       4.13265160      11.93417299
Pd       1.37110082       6.89256210      11.94010419
Pd       4.13935064       6.87026939      11.96482277
Pd       6.87097415       6.85831372      11.95140951
Pd       9.64205429       6.82915781      11.94515418
Pd      12.39111484       6.85622887      11.94896407
Pd       1.39077055       9.64469846      11.96366498
Pd       4.11777592       9.66324146      11.95099537
Pd       6.89476706       9.64088005      11.95142944
Pd       9.64982872       9.59779534      11.89439304
Pd      12.42487279       9.60955999      11.94161946
Pd       1.36678977      12.36572079      11.93185598
Pd       4.11552742      12.39632064      11.96959802
Pd       6.86816975      12.39901143      11.97280504
Pd       9.63028672      12.36702810      11.91406436
Pd      12.37463013      12.34428102      11.90501880
Pd      13.66271784      13.65861429      13.88999684
Pd       2.64530822       0.08074927      13.83256458
Pd       5.52414520      13.74441952      14.00000313
Pd       8.28234650       0.01311101      14.00727077
Pd      10.98952748      13.69617918      13.82948849
Pd       0.07167842       2.64825067      13.92508616
Pd       2.89518986       2.82456879      14.15041350
Pd       5.69668621       2.75605987      14.07903683
Pd       8.39649401       2.76193448      14.04378026
Pd      11.06448889       2.70640965      13.87091297
Pd      13.72278005       5.54431984      14.02012618
Pd       2.76063995       5.59685505      14.02410009
Pd       5.45448363       5.48218837      14.02981971
Pd       8.20284468       5.51828837      13.97360411
Pd      10.94259918       5.42928777      13.92835004
Pd       0.02495298       8.26433150      13.93352393
Pd       2.80351400       8.30942479      13.92903331
Pd       5.59354877       8.23640649      13.92559550
Pd       8.35371048       8.24682534      13.98105842
Pd      11.05996031       8.17856088      14.11778654
Pd      13.70630938      10.96712776      13.98709345
Pd       2.61017652      11.05616315      14.02023722
Pd       5.41729522      11.00367090      13.98475144
Pd       8.18773191      11.00416563      14.02890862
Pd      10.95608024      10.96701624      13.88078026
Pd      12.48160557       6.75160342      16.26483487
Pd      10.04593533       9.71754471      16.29158102
Pd       3.54853540      12.77276883      16.05559570
Pd       1.50530757       7.14816112      15.93268822
Pd      12.75029008       9.58453199      16.18895947
Pd      10.09380045       1.25750824      15.85405902
Pd       5.99298941       0.79214544      16.81543393
Pd       7.10408855       8.38949859      16.47183305
Pd       6.38488526      11.37633963      16.51957626
Pd      12.06698212      13.05243489      16.61133170
Pd       1.68678331       4.48162910      16.33514757
Pd       4.84936475       3.88188646      16.53033755
Pd      12.00844177       3.39158835      16.47558499
Pd       3.91782448       9.71940940      16.06130016
Pd       6.82438454       5.72026952      16.30689351
Pd       8.36258263      13.03118930      16.81691052
Pd       9.71157598       6.58734340      16.38884268
Pd       8.33515598       2.95527220      16.98456342
Pd       1.27015488       0.91776593      16.01677710
Pd       4.19707497       6.59482649      16.40485514
O       10.31787931       2.69407843      17.27890020
O       11.50279448      11.13258258      15.87203284
O        0.13867235      13.02649821      15.82524550
O       13.28199225       1.82788595      17.09217913
O       12.67334846       0.83599211      17.78709470
O        5.20327907       8.25393758      15.97679392
O        4.43090504       0.72367811      15.63906465
O        2.36265965       2.52251725      16.11289432
O       10.27016398      13.50017673      17.22800185
O        2.56510293      11.09548583      16.10749041
O        5.21370838      12.73047295      17.38663441
O        3.37686583       4.99504929      17.19221214
O        8.46760465       4.97198965      17.05202055
O        8.93724492       8.29328499      17.06986019
O        6.37026075       2.67318738      16.16701640
O       13.68719243       3.99033168      15.50322505
O       11.18118406       5.24520556      15.95693490
O        0.01705276       8.08531709      16.91828314
O        7.78462930       1.01153310      17.64216805
O        8.42043086      11.15672953      16.10192624
