115
Lattice="13.75323 0.0 0.0 0.0 13.75323 0.0 0.0 0.0 23.89" Properties=species:S:1:pos:R:3 entry_id=17 rank=2 energy=-573.5419921875 parent_id=15 pbc="T T F"
Pd       0.00000000       0.00000000      10.00000000
Pd       2.75064538       0.00000000      10.00000000
Pd       5.50129076       0.00000000      10.00000000
Pd       8.25193614       0.00000000      10.00000000
Pd      11.00258152       0.00000000      10.00000000
Pd       0.00000000       2.75064538      10.00000000
Pd       2.75064538       2.75064538      10.00000000
Pd       5.50129076       2.75064538      10.00000000
Pd       8.25193614       2.75064538      10.00000000
Pd      11.00258152       2.75064538      10.00000000
Pd       0.00000000       5.50129076      10.00000000
Pd       2.75064538       5.50129076      10.00000000
Pd       5.50129076       5.50129076      10.00000000
Pd       8.25193614       5.50129076      10.00000000
Pd      11.00258152       5.50129076      10.00000000
Pd       0.00000000       8.25193614      10.00000000
Pd       2.75064538       8.25193614      10.00000000
Pd       5.50129076       8.25193614      10.00000000
Pd       8.25193614       8.25193614      10.00000000
Pd      11.00258152       8.25193614      10.00000000
Pd       0.00000000      11.00258152      10.00000000
Pd       2.75064538      11.00258152      10.00000000
Pd       5.50129076      11.00258152      10.00000000
Pd       8.25193614      11.00258152      10.00000000
Pd      11.00258152      11.00258152      10.00000000
Pd       1.41396661       1.40550473      12.02810722
Pd       4.13225406       1.40219153      12.03998092
Pd       6.85365656       1.34974062      11.99754393
Pd       9.57512057       1.39592898      11.89594876
Pd      12.38684272       1.37174114      11.92044161
Pd       1.37210123       4.15211482      12.00122176
Pd       4.08579781       4.10309952      12.01461944
Pd       6.82986992       4.11401125      11.96435900
Pd       9.56728621       4.13975942      11.94281254
Pd      12.36578195       4.13265160      11.93417299
Pd       1.37110082       6.89256210      11.94010419
Pd       4.13935064       6.87026939      11.96482277
Pd       6.87097415       6.85831372      11.95140951
Pd       9.64205429       6.82915781      11.94515418
Pd      12.39111484       6.85622887      11.94896407
Pd       1.38992049       9.68482219      11.98493365
Pd       4.11777592       9.66324146      11.95099537
Pd       6.89476706       9.64088005      11.95142944
Pd       9.64982872       9.59779534      11.89439304
Pd      12.42487279       9.60955999      11.94161946
Pd       1.40450973      12.41174240      11.99438190
Pd       4.12863467      12.40590809      12.01595724
Pd       6.86816975      12.39901143      11.97280504
Pd       9.63028672      12.36702810      11.91406436
Pd      12.38828083      12.35613458      11.93662312
Pd      13.74570708      13.73199201      13.91543307
Pd       2.76530039       0.17199304      14.16527679
Pd       5.57672140      13.68870185      14.06250543
Pd       8.33644296       0.05335250      13.97762440
Pd      11.04828210       0.00049754      13.88254979
Pd       0.01338552       2.74456696      13.96458990
Pd       2.82826725       2.90519416      14.19011273
Pd       5.58189837       2.72353060      14.03020113
Pd       8.29463213       2.73579557      13.92469350
Pd      11.03900657       2.75059859      13.82620062
Pd      13.62346345       5.61825961      14.05915350
Pd       2.65435419       5.61299650      13.99574267
Pd       5.41150827       5.46151097      13.99459374
Pd       8.16467190       5.42236413      14.02133996
Pd      10.87132326       5.47507748      13.95832284
Pd       0.00759834       8.33009015      13.91794033
Pd       2.78133385       8.34573147      13.95966315
Pd       5.54021210       8.21669490      13.97755160
Pd       8.31884075       8.12815803      13.97227554
Pd      11.06956499       8.20761882      13.92203824
Pd      13.70996381      11.04057694      14.03197804
Pd       2.68210606      11.11320930      14.02106851
Pd       5.47627346      10.94596018      14.08806586
Pd       8.19275183      10.81787391      13.91430660
Pd      10.89568728      10.95933518      13.96113203
Pd      12.08871027       6.83275461      16.27282711
Pd       9.42034669      11.04419297      17.67106745
Pd       4.39112611      12.02721924      16.56092571
Pd       1.26543427       7.31123188      15.98742381
Pd      12.60836027       9.59931105      16.22188027
Pd       9.91005747       1.43885514      15.78503778
Pd       5.92852701       1.00456466      16.75487188
Pd       6.98775503       9.44406849      16.02944148
Pd       7.43051666      12.35757252      16.31199590
Pd      12.03566382      13.10689203      16.74432860
Pd       1.54594859       4.70558290      16.39921837
Pd       4.67914671       4.23784967      16.47827413
Pd      11.79678227       3.58241392      16.46214874
Pd       4.20071978       9.42191756      16.24591872
Pd       6.71889560       6.55766914      16.23874841
Pd       8.95560480       0.21065368      17.84533900
Pd       9.90947947       8.77964257      16.13949459
Pd       8.03709002       3.28275149      16.70722603
Pd       1.10006803       1.28875602      16.09162007
Pd       3.93687751       6.84272314      15.98828696
O       10.01652048       2.93915100      17.13209359
O       12.09024613      11.38229681      15.59138919
O        0.04041878      13.42738950      15.89674872
O       12.97472943       2.02390289      17.18095546
O       12.29720222       1.03177834      17.82275888
O        5.56007650       8.07641828      16.91458103
O        4.28748237       0.19515728      15.69666533
O        2.30769557       2.78984634      16.19282604
O       10.42545126      12.68982705      17.88783040
O        2.89730028      10.89515543      16.00239405
O        5.91281662      12.88862044      17.46664910
O        3.23404687       5.33908351      17.19003088
O        8.09455740       5.16203010      16.00362172
O        8.50002194       9.37364928      17.42380974
O        6.06904677       2.91593835      16.06091900
O       13.56069818       4.11776397      15.56435235
O       10.93904832       5.30488686      15.94189822
O       13.43165631       8.03551901      17.03612628
O        7.56630227       1.59783843      17.76919812
O        8.97259320      12.22161998      15.11432506
