115
Lattice="13.75323 0.0 0.0 0.0 13.75323 0.0 0.0 0.0 23.89" Properties=species:S:1:pos:R:3 entry_id=14 rank=10 energy=-573.438232421875 parent_id=11 pbc="T T F"
Pd       0.00000000       0.00000000      10.00000000
Pd       2.75064538       0.00000000      10.00000000
Pd       5.50129076       0.00000000      10.00000000
Pd       8.25193614       0.00000000      10.00000000
Pd      11.00258152       0.00000000      10.00000000
Pd       0.00000000       2.75064538      10.00000000
Pd       2.75064538       2.75064538      10.00000000
Pd       5.50129076       2.75064538      10.00000000
Pd       8.25193614       2.75064538      10.00000000
Pd      11.00258152       2.75064538      10.00000000
Pd       0.00000000       5.50129076      10.00000000
Pd       2.75064538       5.50129076      10.00000000
Pd       5.50129076       5.50129076      10.00000000
Pd       8.25193614       5.50129076      10.00000000
Pd      11.00258152       5.50129076      10.00000000
Pd       0.00000000       8.25193614      10.00000000
Pd       2.75064538       8.25193614      10.00000000
Pd       5.50129076       8.25193614      10.00000000
Pd       8.25193614       8.25193614      10.00000000
Pd      11.00258152       8.25193614      10.00000000
Pd       0.00000000      11.00258152      10.00000000
Pd       2.75064538      11.00258152      10.00000000
Pd       5.50129076      11.00258152      10.00000000
Pd       8.25193614      11.00258152      10.00000000
Pd      11.00258152      11.00258152      10.00000000
Pd       1.39509905       1.41791755      11.99547684
Pd       4.13154953       1.41294855      12.02989616
Pd       6.85798497       1.36521441      11.99426695
Pd       9.57512057       1.39592898      11.89594876
Pd      12.38684272       1.37174114      11.92044161
Pd       1.37753207       4.15797989      11.99954518
Pd       4.09941112       4.10977844      12.01748514
Pd       6.83686396       4.11847051      11.96869451
Pd       9.56728621       4.13975942      11.94281254
Pd      12.36578195       4.13265160      11.93417299
Pd       1.37110082       6.89256210      11.94010419
Pd       4.13935064       6.87026939      11.96482277
Pd       6.87097415       6.85831372      11.95140951
Pd       9.64205429       6.82915781      11.94515418
Pd      12.39111484       6.85622887      11.94896407
Pd       1.39244463       9.68438431      11.99146365
Pd       4.11777592       9.66324146      11.95099537
Pd       6.89476706       9.64088005      11.95142944
Pd       9.64982872       9.59779534      11.89439304
Pd      12.42487279       9.60955999      11.94161946
Pd       1.39741858      12.39788957      11.99549998
Pd       4.12435782      12.39681719      12.02373779
Pd       6.86816975      12.39901143      11.97280504
Pd       9.63028672      12.36702810      11.91406436
Pd      12.38478553      12.35695899      11.92972832
Pd      13.70336304       0.00055020      13.90529856
Pd       2.68360131       0.09546893      14.03510061
Pd       5.56733092       0.00511249      14.02571658
Pd       8.33350255       0.05081713      13.99292726
Pd      11.02682436      13.74442733      13.87949703
Pd       0.02260131       2.75726330      13.96391185
Pd       2.83339321       2.86498914      14.16122459
Pd       5.60523008       2.78343619      14.06308996
Pd       8.30726964       2.72928008      13.93679150
Pd      11.04576403       2.74635880      13.83177106
Pd      13.64707341       5.63397994      14.06409031
Pd       2.67817623       5.59719042      13.99712693
Pd       5.43013411       5.49847893      13.99672723
Pd       8.18472520       5.40849523      14.02846901
Pd      10.89241145       5.47147200      13.95543074
Pd       0.01271988       8.34386962      13.92734479
Pd       2.77923695       8.32811254      13.96697431
Pd       5.54261713       8.25070544      13.97230592
Pd       8.32826597       8.11123961      13.96313587
Pd      11.07582923       8.20484035      13.91660522
Pd      13.71695514      11.06074075      14.03394922
Pd       2.67376712      11.04870715      14.06932361
Pd       5.49403850      10.98903162      14.09173861
Pd       8.22130041      10.80274956      13.91858197
Pd      10.91037247      10.95570827      13.94361344
Pd      12.08676604       6.84134926      16.27896176
Pd       9.39848571      11.06081069      17.59994654
Pd       3.94394186      12.51899976      16.09433035
Pd       1.25251454       7.31152814      16.00766535
Pd      12.61012770       9.61215427      16.21590790
Pd       9.92421825       1.43050371      15.79687285
Pd       5.96753516       1.09171659      16.86706727
Pd       7.02982345       9.42364852      16.00810864
Pd       7.16666521      12.36628147      16.36207065
Pd      12.05658460      13.12163978      16.71820627
Pd       1.59638879       4.71536120      16.40196895
Pd       4.75416681       4.31413927      16.52103454
Pd      11.84421334       3.58696745      16.45855791
Pd       4.29934400       9.50324412      16.26277740
Pd       6.74009581       6.55248658      16.24953273
Pd       8.93265012       0.18793771      17.83670457
Pd       9.92519105       8.76931540      16.13580442
Pd       8.10701022       3.30080678      16.75196871
Pd       1.15247155       1.27662950      16.06751773
Pd       3.93837305       6.90146419      15.98493541
O       10.07815912       2.93371646      17.14048068
O       12.10603814      11.39405376      15.56655263
O        0.07007951      13.42720046      15.88173883
O       13.02426444       2.02581759      17.16577828
O       12.34516243       1.03456824      17.80879398
O        5.60284922       8.09310354      16.90770117
O        4.45704227       0.63798408      15.67454624
O        2.33721478       2.79721393      16.16273934
O       10.41965327      12.68996835      17.82018745
O        2.91802866      10.85817000      16.09649949
O        5.60031150      12.92788930      17.42025936
O        3.27287718       5.38565031      17.19617925
O        8.13188051       5.17122998      16.01466569
O        8.51439011       9.36265699      17.41909722
O        6.15053884       2.98618815      16.12748635
O       13.60560415       4.13079830      15.56474688
O       10.96106690       5.29960260      15.93976957
O       13.41938483       8.05179535      17.04975916
O        7.61504889       1.63106141      17.87162645
O        8.72304608      12.22939103      15.20485495
