115
Lattice="13.75323 0.0 0.0 0.0 13.75323 0.0 0.0 0.0 23.89" Properties=species:S:1:pos:R:3 entry_id=4 rank=18 energy=-571.9935302734375 parent_id=3 pbc="T T F"
Pd       0.00000000       0.00000000      10.00000000
Pd       2.75064538       0.00000000      10.00000000
Pd       5.50129076       0.00000000      10.00000000
Pd       8.25193614       0.00000000      10.00000000
Pd      11.00258152       0.00000000      10.00000000
Pd       0.00000000       2.75064538      10.00000000
Pd       2.75064538       2.75064538      10.00000000
Pd       5.50129076       2.75064538      10.00000000
Pd       8.25193614       2.75064538      10.00000000
Pd      11.00258152       2.75064538      10.00000000
Pd       0.00000000       5.50129076      10.00000000
Pd       2.75064538       5.50129076      10.00000000
Pd       5.50129076       5.50129076      10.00000000
Pd       8.25193614       5.50129076      10.00000000
Pd      11.00258152       5.50129076      10.00000000
Pd       0.00000000       8.25193614      10.00000000
Pd       2.75064538       8.25193614      10.00000000
Pd       5.50129076       8.25193614      10.00000000
Pd       8.25193614       8.25193614      10.00000000
Pd      11.00258152       8.25193614      10.00000000
Pd       0.00000000      11.00258152      10.00000000
Pd       2.75064538      11.00258152      10.00000000
Pd       5.50129076      11.00258152      10.00000000
Pd       8.25193614      11.00258152      10.00000000
Pd      11.00258152      11.00258152      10.00000000
Pd       1.33312201       1.39969404      12.00349264
Pd       4.06563190       1.38343551      11.94155298
Pd       6.83983523       1.36964874      11.95590791
Pd       9.57512057       1.39592898      11.89594876
Pd      12.38684272       1.37174114      11.92044161
Pd       1.39341840       4.13515484      12.02288526
Pd       4.09814451       4.14138961      12.01515212
Pd       6.81781055       4.13888973      11.99911267
Pd       9.56728621       4.13975942      11.94281254
Pd      12.36578195       4.13265160      11.93417299
Pd       1.37110082       6.89256210      11.94010419
Pd       4.13935064       6.87026939      11.96482277
Pd       6.87097415       6.85831372      11.95140951
Pd       9.64205429       6.82915781      11.94515418
Pd      12.39111484       6.85622887      11.94896407
Pd       1.40027403       9.65083760      11.94573252
Pd       4.11777592       9.66324146      11.95099537
Pd       6.89476706       9.64088005      11.95142944
Pd       9.64982872       9.59779534      11.89439304
Pd      12.42487279       9.60955999      11.94161946
Pd       1.37090268      12.42426298      11.99394175
Pd       4.11539941      12.39710267      11.97136918
Pd       6.86816975      12.39901143      11.97280504
Pd       9.63028672      12.36702810      11.91406436
Pd      12.38913147      12.35932980      11.95055847
Pd      13.57943749      13.66666603      14.02333117
Pd       2.63322988       0.04157773      14.03965156
Pd       5.50332719      13.66065254      14.04331685
Pd       8.21953063       0.04957599      13.99545032
Pd      10.89587120       0.02965149      13.90966193
Pd      13.67562648       2.69087109      14.00280567
Pd       2.68091388       2.82384278      14.16129754
Pd       5.41368135       2.67552347      13.93277498
Pd       8.19495013       2.76915991      13.94557222
Pd      10.92007718       2.72354664      13.89406754
Pd       0.07538296       5.54790304      14.02149340
Pd       2.86894699       5.57525286      14.05949954
Pd       5.58607999       5.38265708      14.27417248
Pd       8.30080982       5.56504295      14.07137734
Pd      11.01550689       5.51011597      13.86839916
Pd       0.06509500       8.26570987      13.91688051
Pd       2.78529096       8.28665736      13.94899151
Pd       5.52996344       8.22825724      13.91521121
Pd       8.32261309       8.29378811      13.88435804
Pd      11.01981771       8.28285103      14.01107426
Pd       0.03937905      10.98143945      13.99380148
Pd       2.83094531      11.07189229      13.95791001
Pd       5.53989789      10.94826334      13.91783003
Pd       8.25494340      11.04345395      13.95350075
Pd      11.00330779      11.05427392      13.89314928
Pd      12.50898646       6.99032439      16.03748174
Pd       9.57067208       9.67033558      16.31443061
Pd       2.06685161      12.51785473      16.51154447
Pd       1.64761151       7.32822676      16.48926911
Pd      12.40226052       9.81905368      16.04357735
Pd       9.43577392       1.28878106      16.27333170
Pd       4.46896268       0.76272486      17.17129267
Pd       6.16436106       9.80175694      16.39655921
Pd       4.66287444      12.05486043      16.16678529
Pd      11.33779600      13.06241888      16.57835024
Pd       1.67402103       4.66227216      16.44965447
Pd       4.26514496       4.51515454      16.86662924
Pd      11.81558247       3.67952931      16.27475320
Pd       3.07542219       9.75074625      16.35433296
Pd       6.99517696       7.21633342      15.93826030
Pd       7.27792847      12.75451097      16.47936588
Pd       9.69665422       6.88185706      16.27105166
Pd       6.88132725       2.38312499      16.28683443
Pd       0.78498020       1.15144856      16.24414747
Pd       4.32667290       7.08720749      15.98587967
O        9.96569314       3.08117841      15.79326026
O       10.95077051      11.14428452      15.97187427
O       13.33858216      13.26516374      16.04051197
O       12.49682687       1.97002755      17.04739639
O       11.47576107       1.12412102      17.46330456
O        4.61878576       8.81320317      17.08877410
O        4.12255937       1.28266615      14.87112506
O        2.00024841       2.68647817      16.09809643
O        9.30361178      13.26183484      17.03472648
O        1.55676740      10.83736075      15.64221623
O        2.54369069       0.40395546      17.41277700
O        2.98416529       6.03307410      17.28151805
O        7.16407052       4.12065238      15.25436288
O        8.43929008       8.18329003      16.99557651
O        5.12440192       2.84332196      17.22563106
O       13.66819892       4.16354232      15.60113133
O       11.15033548       5.55522043      15.92930936
O        0.07168522       8.44953965      16.04313870
O        6.47770669       0.65664112      17.19952688
O        7.81763622      10.88644659      15.98963205
