115
Lattice="13.75323 0.0 0.0 0.0 13.75323 0.0 0.0 0.0 23.89" Properties=species:S:1:pos:R:3 entry_id=7 rank=15 energy=-573.04150390625 parent_id=6 pbc="T T F"
Pd       0.00000000       0.00000000      10.00000000
Pd       2.75064538       0.00000000      10.00000000
Pd       5.50129076       0.00000000      10.00000000
Pd       8.25193614       0.00000000      10.00000000
Pd      11.00258152       0.00000000      10.00000000
Pd       0.00000000       2.75064538      10.00000000
Pd       2.75064538       2.75064538      10.00000000
Pd       5.50129076       2.75064538      10.00000000
Pd       8.25193614       2.75064538      10.00000000
Pd      11.00258152       2.75064538      10.00000000
Pd       0.00000000       5.50129076      10.00000000
Pd       2.75064538       5.50129076      10.00000000
Pd       5.50129076       5.50129076      10.00000000
Pd       8.25193614       5.50129076      10.00000000
Pd      11.00258152       5.50129076      10.00000000
Pd       0.00000000       8.25193614      10.00000000
Pd       2.75064538       8.25193614      10.00000000
Pd       5.50129076       8.25193614      10.00000000
Pd       8.25193614       8.25193614      10.00000000
Pd      11.00258152       8.25193614      10.00000000
Pd       0.00000000      11.00258152      10.00000000
Pd       2.75064538      11.00258152      10.00000000
Pd       5.50129076      11.00258152      10.00000000
Pd       8.25193614      11.00258152      10.00000000
Pd      11.00258152      11.00258152      10.00000000
Pd       1.35813586       1.40719506      11.99482352
Pd       4.08992805       1.42582257      11.97980303
Pd       6.82880347       1.38806396      11.96173180
Pd       9.57512057       1.39592898      11.89594876
Pd      12.38684272       1.37174114      11.92044161
Pd       1.39114223       4.13278760      12.02827655
Pd       4.08963450       4.13711990      12.02719328
Pd       6.83718679       4.14124654      11.98330321
Pd       9.56728621       4.13975942      11.94281254
Pd      12.36578195       4.13265160      11.93417299
Pd       1.37110082       6.89256210      11.94010419
Pd       4.13935064       6.87026939      11.96482277
Pd       6.87097415       6.85831372      11.95140951
Pd       9.64205429       6.82915781      11.94515418
Pd      12.39111484       6.85622887      11.94896407
Pd       1.38440303       9.64160916      11.95398095
Pd       4.11777592       9.66324146      11.95099537
Pd       6.89476706       9.64088005      11.95142944
Pd       9.64982872       9.59779534      11.89439304
Pd      12.42487279       9.60955999      11.94161946
Pd       1.37655657      12.41850119      11.97334616
Pd       4.11930660      12.41787258      11.96145143
Pd       6.86816975      12.39901143      11.97280504
Pd       9.63028672      12.36702810      11.91406436
Pd      12.38911180      12.33790997      11.93078060
Pd      13.61495771      13.63785619      13.94915183
Pd       2.64076568       0.07814457      14.04442497
Pd       5.50669252      13.75230215      13.99369546
Pd       8.22360538      13.74611670      13.93781345
Pd      10.94318591      13.73940252      13.85735882
Pd      13.69415791       2.64483772      13.96732262
Pd       2.70249854       2.87470935      14.25367086
Pd       5.54432307       2.85111543      13.98589824
Pd       8.26209818       2.71622979      13.92628858
Pd      10.97455223       2.72106598      13.86935551
Pd       0.00217904       5.48697754      14.03434360
Pd       2.77474662       5.61623992      14.03581099
Pd       5.50876044       5.59989178      14.03210667
Pd       8.24507425       5.41928025      14.04101738
Pd      10.98182680       5.45816472      13.91582661
Pd       0.06366361       8.23120010      13.95892952
Pd       2.79478315       8.32827079      13.95391341
Pd       5.56073453       8.35029858      13.95085219
Pd       8.32719349       8.27240867      13.89484389
Pd      11.02389725       8.23841878      14.04589513
Pd       0.06328910      10.96545075      14.04866291
Pd       2.79274753      11.09667638      13.91638659
Pd       5.50380763      11.03022049      13.96294755
Pd       8.23674693      11.03127398      14.00595688
Pd      11.01046960      11.01781828      13.89438375
Pd      12.47149205       6.84270756      16.07324043
Pd       9.63848869       9.68018856      16.26249936
Pd       2.60920689      12.59156710      16.51030390
Pd       1.67542042       7.20387026      16.35854242
Pd      12.42645342       9.76257583      16.04857639
Pd       9.71838673       1.32327653      15.78847754
Pd       5.28273077       1.29167408      16.62533589
Pd       6.44337666       9.87735241      16.33886693
Pd       5.22942114      12.19797147      16.34083392
Pd      11.57214417      13.12388527      16.62972399
Pd       1.49446027       4.56505687      16.35242092
Pd       4.42286729       4.53580121      16.35416811
Pd      11.69908463       3.45803977      16.47117863
Pd       3.25941224       9.86994016      16.28437522
Pd       6.98267897       7.05194640      15.90683995
Pd       7.71407947      13.13777653      16.65144461
Pd       9.70048333       6.75331207      16.32596227
Pd       7.88424554       3.17595923      16.66108501
Pd       0.88607677       0.99385318      16.16918389
Pd       4.32777346       7.18618861      16.00853666
O        9.85951639       2.85819296      17.08682719
O       11.03861079      11.17050974      15.96326109
O       13.46783224      13.14352759      15.93951496
O       12.82951212       1.86990103      17.18487150
O       12.12824039       0.90762500      17.82727375
O        4.83021409       8.91577204      16.96878208
O        4.08906681       1.36239979      14.94712916
O        2.03091237       2.56810499      16.22962403
O        9.68839721      13.54891655      17.10504530
O        1.69672514      11.01640069      15.71769570
O        4.12385032      13.56134954      17.32862783
O        2.98053455       5.75016852      17.07026831
O        8.15618055       5.14783004      16.11021083
O        8.48749345       8.18412326      16.90465699
O        5.89910322       3.17873063      16.07429215
O       13.48379965       3.94108281      15.58369848
O       11.11623123       5.37656363      15.98630267
O        0.02676583       8.31854297      16.10910832
O        7.15952117       1.23801408      17.34728076
O        8.01482526      11.15544782      16.09402987
