115
Lattice="13.75323 0.0 0.0 0.0 13.75323 0.0 0.0 0.0 23.89" Properties=species:S:1:pos:R:3 entry_id=5 rank=19 energy=-571.9835205078125 parent_id=4 pbc="T T F"
Pd       0.00000000       0.00000000      10.00000000
Pd       2.75064538       0.00000000      10.00000000
Pd       5.50129076       0.00000000      10.00000000
Pd       8.25193614       0.00000000      10.00000000
Pd      11.00258152       0.00000000      10.00000000
Pd       0.00000000       2.75064538      10.00000000
Pd       2.75064538       2.75064538      10.00000000
Pd       5.50129076       2.75064538      10.00000000
Pd       8.25193614       2.75064538      10.00000000
Pd      11.00258152       2.75064538      10.00000000
Pd       0.00000000       5.50129076      10.00000000
Pd       2.75064538       5.50129076      10.00000000
Pd       5.50129076       5.50129076      10.00000000
Pd       8.25193614       5.50129076      10.00000000
Pd      11.00258152       5.50129076      10.00000000
Pd       0.00000000       8.25193614      10.00000000
Pd       2.75064538       8.25193614      10.00000000
Pd       5.50129076       8.25193614      10.00000000
Pd       8.25193614       8.25193614      10.00000000
Pd      11.00258152       8.25193614      10.00000000
Pd       0.00000000      11.00258152      10.00000000
Pd       2.75064538      11.00258152      10.00000000
Pd       5.50129076      11.00258152      10.00000000
Pd       8.25193614      11.00258152      10.00000000
Pd      11.00258152      11.00258152      10.00000000
Pd       1.34062846       1.39090814      11.99765667
Pd       4.08621278       1.39911968      11.96302297
Pd       6.83865405       1.35699535      11.96531701
Pd       9.57512057       1.39592898      11.89594876
Pd      12.38684272       1.37174114      11.92044161
Pd       1.38481409       4.12899591      12.01799057
Pd       4.08954787       4.13741351      12.00376672
Pd       6.82753808       4.12285045      11.98120681
Pd       9.56728621       4.13975942      11.94281254
Pd      12.36578195       4.13265160      11.93417299
Pd       1.37110082       6.89256210      11.94010419
Pd       4.13935064       6.87026939      11.96482277
Pd       6.87097415       6.85831372      11.95140951
Pd       9.64205429       6.82915781      11.94515418
Pd      12.39111484       6.85622887      11.94896407
Pd       1.39861180       9.64668845      11.94884526
Pd       4.11777592       9.66324146      11.95099537
Pd       6.89476706       9.64088005      11.95142944
Pd       9.64982872       9.59779534      11.89439304
Pd      12.42487279       9.60955999      11.94161946
Pd       1.37080386      12.41484092      11.99523961
Pd       4.11727559      12.40704640      11.97712117
Pd       6.86816975      12.39901143      11.97280504
Pd       9.63028672      12.36702810      11.91406436
Pd      12.38822070      12.35593509      11.94864252
Pd      13.56861427      13.65846266      14.01687199
Pd       2.62845906       0.03043436      14.04089697
Pd       5.49476242      13.68788758      14.07524727
Pd       8.20743519       0.00600232      14.02628621
Pd      10.88497113       0.02308675      13.91151910
Pd      13.68304881       2.67762947      14.00217732
Pd       2.68230835       2.81279991      14.14969040
Pd       5.43933720       2.75068558      13.97361280
Pd       8.24528611       2.71587581      13.93380773
Pd      10.94044826       2.71443751      13.89472676
Pd       0.05290460       5.52874367      14.02217836
Pd       2.82239164       5.56449981      14.04990262
Pd       5.54058710       5.48435753      14.12407218
Pd       8.25864397       5.50404289      14.04997953
Pd      10.98922833       5.49927280      13.86922270
Pd       0.06301149       8.25303542      13.92182924
Pd       2.78199469       8.27856525      13.95014981
Pd       5.52366752       8.26495189      13.92400654
Pd       8.32217858       8.25965841      13.88179435
Pd      11.02059624       8.27231853      14.01179487
Pd       0.04845284      10.97305636      14.00542912
Pd       2.84050437      11.06352546      13.96167322
Pd       5.55289854      10.97324659      13.91518499
Pd       8.27050557      11.01712135      13.94826401
Pd      11.01690224      11.04839212      13.89575819
Pd      12.51249168       6.95656475      16.03963701
Pd       9.57821562       9.59808124      16.31129287
Pd       2.08575527      12.48799935      16.51765612
Pd       1.66317690       7.28289613      16.49268399
Pd      12.41635045       9.77834180      16.04347695
Pd       9.44652604       1.24180653      16.29002191
Pd       4.48520968       0.68941355      17.24534932
Pd       6.18251410       9.74904788      16.38372530
Pd       4.68120041      12.01155930      16.18473677
Pd      11.34646923      13.00786245      16.57516859
Pd       1.68746961       4.62029046      16.44755960
Pd       4.26544037       4.43685555      16.92054995
Pd      11.81503864       3.64071899      16.28698211
Pd       3.09199273       9.70755367      16.35046546
Pd       6.99157245       7.14348617      15.90622129
Pd       7.29398251      12.67242009      16.53866506
Pd       9.68614837       6.80975860      16.24899551
Pd       6.85770981       2.19438955      16.30792302
Pd       0.79764833       1.11263112      16.23430852
Pd       4.33098672       7.02987270      15.96996581
O        9.95632613       3.04294575      15.79970441
O       10.95263185      11.08846074      15.97404105
O       13.34441771      13.22968967      16.02815030
O       12.49345063       1.92601653      17.03801412
O       11.47256860       1.07625322      17.45214747
O        4.63386528       8.75560922      17.07396394
O        4.09815578       1.31329961      14.82688253
O        2.01320089       2.64796060      16.09328727
O        9.32003625      13.21283242      17.05262134
O        1.57773450      10.80795678      15.64817964
O        2.55161685       0.37101505      17.42870022
O        3.01007886       5.98240290      17.27717877
O        7.00433641       3.84662211      15.16990803
O        8.43123076       8.10943985      16.97915313
O        5.12489419       2.75299156      17.26615701
O       13.66940753       4.13415258      15.60767376
O       11.16407444       5.51240811      15.92635360
O        0.08721200       8.40807226      16.05162381
O        6.49084282       0.53671762      17.33646396
O        7.84087663      10.82875220      15.98179997
