115
Lattice="13.75323 0.0 0.0 0.0 13.75323 0.0 0.0 0.0 23.89" Properties=species:S:1:pos:R:3 entry_id=1 rank=21 energy=-571.0703125 parent_id=0 pbc="T T F"
Pd       0.00000000       0.00000000      10.00000000
Pd       2.75064538       0.00000000      10.00000000
Pd       5.50129076       0.00000000      10.00000000
Pd       8.25193614       0.00000000      10.00000000
Pd      11.00258152       0.00000000      10.00000000
Pd       0.00000000       2.75064538      10.00000000
Pd       2.75064538       2.75064538      10.00000000
Pd       5.50129076       2.75064538      10.00000000
Pd       8.25193614       2.75064538      10.00000000
Pd      11.00258152       2.75064538      10.00000000
Pd       0.00000000       5.50129076      10.00000000
Pd       2.75064538       5.50129076      10.00000000
Pd       5.50129076       5.50129076      10.00000000
Pd       8.25193614       5.50129076      10.00000000
Pd      11.00258152       5.50129076      10.00000000
Pd       0.00000000       8.25193614      10.00000000
Pd       2.75064538       8.25193614      10.00000000
Pd       5.50129076       8.25193614      10.00000000
Pd       8.25193614       8.25193614      10.00000000
Pd      11.00258152       8.25193614      10.00000000
Pd       0.00000000      11.00258152      10.00000000
Pd       2.75064538      11.00258152      10.00000000
Pd       5.50129076      11.00258152      10.00000000
Pd       8.25193614      11.00258152      10.00000000
Pd      11.00258152      11.00258152      10.00000000
Pd       1.34879250       1.42340808      12.05783223
Pd       4.07851853       1.40307053      11.96517322
Pd       6.82794916       1.36888603      11.96882579
Pd       9.57512057       1.39592898      11.89594876
Pd      12.38684272       1.37174114      11.92044161
Pd       1.38031672       4.12814175      12.01086527
Pd       4.08259387       4.14679878      12.01760308
Pd       6.81461140       4.11507686      12.00396028
Pd       9.56728621       4.13975942      11.94281254
Pd      12.36578195       4.13265160      11.93417299
Pd       1.37110082       6.89256210      11.94010419
Pd       4.13935064       6.87026939      11.96482277
Pd       6.87097415       6.85831372      11.95140951
Pd       9.64205429       6.82915781      11.94515418
Pd      12.39111484       6.85622887      11.94896407
Pd       1.37761322       9.68309572      12.00065801
Pd       4.11777592       9.66324146      11.95099537
Pd       6.89476706       9.64088005      11.95142944
Pd       9.64982872       9.59779534      11.89439304
Pd      12.42487279       9.60955999      11.94161946
Pd       1.37905294      12.44520702      12.02502646
Pd       4.09934895      12.40704913      11.96302636
Pd       6.86816975      12.39901143      11.97280504
Pd       9.63028672      12.36702810      11.91406436
Pd      12.42548427      12.34886295      11.98885208
Pd      13.74584340       0.08332661      14.05708391
Pd       2.78732786       0.14204634      14.11509891
Pd       5.51078553      13.69338726      13.95742788
Pd       8.21091580      13.73862166      13.91320821
Pd      10.99510141       0.06790468      13.80422767
Pd      13.53399507       2.80751060      13.98836068
Pd       2.54552019       2.95107444      14.23791061
Pd       5.42039924       2.64988230      13.97663296
Pd       8.20316901       2.69662999      13.94721760
Pd      10.86317008       2.73555279      13.92587819
Pd       0.06592639       5.51358152      13.95105992
Pd       2.76038048       5.64569066      14.04472150
Pd       5.52777044       5.56703103      14.08710212
Pd       8.28528079       5.46847490      13.99732222
Pd      11.03589440       5.42396444      13.97804362
Pd       0.10531300       8.26417156      13.95068918
Pd       2.86309118       8.34145319      13.98453058
Pd       5.63795732       8.29906188      13.93811108
Pd       8.36404766       8.28342387      13.97357395
Pd      11.08477870       8.23216311      13.92760438
Pd      13.69703858      10.95876825      14.20272380
Pd       2.78518614      11.12838394      13.96953778
Pd       5.49845621      10.98564845      13.90263535
Pd       8.21190444      11.01419242      14.10993222
Pd      10.97199115      10.91566511      13.86273091
Pd      12.58173729       6.63292087      16.10753750
Pd       9.17460197       9.66461942      16.51049247
Pd       1.78562230      12.83345901      16.51711583
Pd       1.67817691       7.11197818      16.28467582
Pd      12.15559004       9.48181321      16.20752793
Pd       9.34824552       1.15709663      16.18904534
Pd       4.53552078       1.07250437      17.10837123
Pd       5.99835147      10.19069615      16.47838796
Pd       4.37170163      12.27595568      16.01430958
Pd      11.53130873      12.49946295      15.97463003
Pd       0.87441462       4.45667086      16.43424653
Pd       3.88714947       4.62332463      16.36910492
Pd      11.16588678       3.28412257      16.65337249
Pd       3.08788187       9.80044142      16.37840580
Pd       7.27370107       7.02300419      16.25939226
Pd       6.91990404      13.44823703      16.35166178
Pd       9.90680352       7.09676018      16.03098966
Pd       7.32403222       3.37291300      16.44482346
Pd       0.79237121       1.63591191      16.20102218
Pd       4.47347809       7.20128837      16.04111099
O        9.18031422       2.87371573      17.13301913
O       10.79383119      10.73536167      16.78569767
O       13.48465136      12.56083243      15.66292076
O       11.78720270       1.59191069      17.60758842
O       10.94309206       0.56897742      17.48407032
O        4.63324527       8.89503888      17.12131324
O        3.89765929       1.64327768      15.14955961
O        1.84477281       1.54134247      17.90582765
O        9.67022021      13.11470903      15.42207845
O        1.64080885      10.94072197      15.70402929
O        2.71810926       0.44869960      17.74243316
O        2.35775871       5.46733290      17.22553940
O        7.97677056       5.19694589      15.97820676
O        7.45081613       8.83151576      16.96299746
O        5.57293495       3.96797176      15.56971721
O       13.13723916       3.23004458      16.00931870
O       11.10357744       5.28190985      16.06590986
O       13.74484621       8.25593840      16.03151097
O        6.43893375       1.53484687      16.91971032
O        7.40793472      11.54141294      16.01817887
