115
Lattice="13.75323 0.0 0.0 0.0 13.75323 0.0 0.0 0.0 23.89" Properties=species:S:1:pos:R:3 entry_id=18 rank=1 energy=-573.5432739257812 parent_id=16 pbc="T T F"
Pd       0.00000000       0.00000000      10.00000000
Pd       2.75064538       0.00000000      10.00000000
Pd       5.50129076       0.00000000      10.00000000
Pd       8.25193614       0.00000000      10.00000000
Pd      11.00258152       0.00000000      10.00000000
Pd       0.00000000       2.75064538      10.00000000
Pd       2.75064538       2.75064538      10.00000000
Pd       5.50129076       2.75064538      10.00000000
Pd       8.25193614       2.75064538      10.00000000
Pd      11.00258152       2.75064538      10.00000000
Pd       0.00000000       5.50129076      10.00000000
Pd       2.75064538       5.50129076      10.00000000
Pd       5.50129076       5.50129076      10.00000000
Pd       8.25193614       5.50129076      10.00000000
Pd      11.00258152       5.50129076      10.00000000
Pd       0.00000000       8.25193614      10.00000000
Pd       2.75064538       8.25193614      10.00000000
Pd       5.50129076       8.25193614      10.00000000
Pd       8.25193614       8.25193614      10.00000000
Pd      11.00258152       8.25193614      10.00000000
Pd       0.00000000      11.00258152      10.00000000
Pd       2.75064538      11.00258152      10.00000000
Pd       5.50129076      11.00258152      10.00000000
Pd       8.25193614      11.00258152      10.00000000
Pd      11.00258152      11.00258152      10.00000000
Pd       1.40990599       1.41019260      12.02823528
Pd       4.13074714       1.40167557      12.03462425
Pd       6.85263076       1.35170802      12.00081193
Pd       9.57512057       1.39592898      11.89594876
Pd      12.38684272       1.37174114      11.92044161
Pd       1.36628170       4.15698010      11.99749870
Pd       4.08325656       4.10185542      12.01284260
Pd       6.82532172       4.11481844      11.97084760
Pd       9.56728621       4.13975942      11.94281254
Pd      12.36578195       4.13265160      11.93417299
Pd       1.37110082       6.89256210      11.94010419
Pd       4.13935064       6.87026939      11.96482277
Pd       6.87097415       6.85831372      11.95140951
Pd       9.64205429       6.82915781      11.94515418
Pd      12.39111484       6.85622887      11.94896407
Pd       1.38869607       9.68838335      11.98435810
Pd       4.11777592       9.66324146      11.95099537
Pd       6.89476706       9.64088005      11.95142944
Pd       9.64982872       9.59779534      11.89439304
Pd      12.42487279       9.60955999      11.94161946
Pd       1.40346907      12.41643693      11.99518435
Pd       4.12685328      12.40358153      12.01088729
Pd       6.86816975      12.39901143      11.97280504
Pd       9.63028672      12.36702810      11.91406436
Pd      12.38776555      12.35834498      11.93693656
Pd      13.74385825      13.74173228      13.91744454
Pd       2.76436089       0.17371575      14.16213800
Pd       5.56765594      13.68615120      14.05373635
Pd       8.32873080       0.05386333      13.97748450
Pd      11.04320320       0.00386179      13.88508355
Pd       0.01056774       2.75700392      13.96769264
Pd       2.81987757       2.90771052      14.18166857
Pd       5.57547933       2.72210433      14.03977762
Pd       8.29118536       2.73896322      13.92466291
Pd      11.03974889       2.75100963      13.82631617
Pd      13.61054673       5.63612541      14.07896400
Pd       2.63973986       5.61117814      13.99152053
Pd       5.40109562       5.45911059      13.99718237
Pd       8.16066676       5.42591285      14.02661575
Pd      10.86679677       5.47396695      13.95641977
Pd       0.00965937       8.33850147      13.92165654
Pd       2.77489824       8.34438068      13.96383082
Pd       5.53781181       8.21305119      13.97615437
Pd       8.31760897       8.12889847      13.96878678
Pd      11.07160466       8.20897444      13.92223001
Pd      13.71689878      11.04953314      14.03312895
Pd       2.68840134      11.10998994      14.01802431
Pd       5.48270883      10.94373752      14.08375739
Pd       8.19629051      10.81820868      13.90951934
Pd      10.90069594      10.96314031      13.96203730
Pd      12.05498186       6.82622252      16.28798191
Pd       9.44372090      11.03482055      17.65905804
Pd       4.40293726      12.00653819      16.54851069
Pd       1.25169822       7.32196941      16.00365783
Pd      12.60734750       9.59309552      16.22810365
Pd       9.90110152       1.44454425      15.78119739
Pd       5.92663299       0.98149691      16.74673796
Pd       6.99785999       9.44445598      16.03045432
Pd       7.46393328      12.34074270      16.28356802
Pd      12.05344540      13.10979832      16.73716312
Pd       1.52781300       4.71867739      16.40838061
Pd       4.66236681       4.23903510      16.50062523
Pd      11.77674809       3.58693472      16.46689362
Pd       4.20177523       9.40826647      16.23493612
Pd       6.69404050       6.54631236      16.24535445
Pd       8.96093590       0.19747233      17.83451880
Pd       9.90600165       8.76100286      16.14076085
Pd       8.01364915       3.26942053      16.71051659
Pd       1.10837183       1.30677262      16.09066059
Pd       3.91765076       6.83492176      15.98416252
O        9.99653938       2.93746380      17.13535137
O       12.11679931      11.38062079      15.58388161
O        0.05953866      13.44025109      15.89838245
O       12.96683841       2.03480536      17.18254451
O       12.29832365       1.03492533      17.82071664
O        5.57343076       8.08882903      16.91194563
O        4.28384838       0.18084705      15.69593966
O        2.30972280       2.81262735      16.18994583
O       10.44015622      12.68652429      17.87145326
O        2.89808187      10.88423521      15.99844798
O        5.93971970      12.85828235      17.43618927
O        3.21700624       5.34708485      17.20439214
O        8.06185273       5.14801507      16.00652499
O        8.50898066       9.36856926      17.43078821
O        6.04210393       2.90616855      16.07737094
O       13.54315664       4.12664415      15.57145116
O       10.90607676       5.30209954      15.94212698
O       13.40570034       8.02020764      17.04953720
O        7.56060273       1.57524768      17.76416361
O        9.02134874      12.21715589      15.09215898
