115
Lattice="13.75323 0.0 0.0 0.0 13.75323 0.0 0.0 0.0 23.89" Properties=species:S:1:pos:R:3 entry_id=22 rank=11 energy=-573.39794921875 parent_id=21 pbc="T T F"
Pd       0.00000000       0.00000000      10.00000000
Pd       2.75064538       0.00000000      10.00000000
Pd       5.50129076       0.00000000      10.00000000
Pd       8.25193614       0.00000000      10.00000000
Pd      11.00258152       0.00000000      10.00000000
Pd       0.00000000       2.75064538      10.00000000
Pd       2.75064538       2.75064538      10.00000000
Pd       5.50129076       2.75064538      10.00000000
Pd       8.25193614       2.75064538      10.00000000
Pd      11.00258152       2.75064538      10.00000000
Pd       0.00000000       5.50129076      10.00000000
Pd       2.75064538       5.50129076      10.00000000
Pd       5.50129076       5.50129076      10.00000000
Pd       8.25193614       5.50129076      10.00000000
Pd      11.00258152       5.50129076      10.00000000
Pd       0.00000000       8.25193614      10.00000000
Pd       2.75064538       8.25193614      10.00000000
Pd       5.50129076       8.25193614      10.00000000
Pd       8.25193614       8.25193614      10.00000000
Pd      11.00258152       8.25193614      10.00000000
Pd       0.00000000      11.00258152      10.00000000
Pd       2.75064538      11.00258152      10.00000000
Pd       5.50129076      11.00258152      10.00000000
Pd       8.25193614      11.00258152      10.00000000
Pd      11.00258152      11.00258152      10.00000000
Pd       1.37296764       1.42167671      11.93424768
Pd       4.15171745       1.43136740      11.99658419
Pd       6.87685138       1.37853964      11.99924635
Pd       9.57512057       1.39592898      11.89594876
Pd      12.38684272       1.37174114      11.92044161
Pd       1.39941948       4.15576155      12.00449415
Pd       4.12071372       4.11680996      12.03261198
Pd       6.85163470       4.11358833      11.98931513
Pd       9.56728621       4.13975942      11.94281254
Pd      12.36578195       4.13265160      11.93417299
Pd       1.37110082       6.89256210      11.94010419
Pd       4.13935064       6.87026939      11.96482277
Pd       6.87097415       6.85831372      11.95140951
Pd       9.64205429       6.82915781      11.94515418
Pd      12.39111484       6.85622887      11.94896407
Pd       1.39248190       9.64793235      11.95953051
Pd       4.11777592       9.66324146      11.95099537
Pd       6.89476706       9.64088005      11.95142944
Pd       9.64982872       9.59779534      11.89439304
Pd      12.42487279       9.60955999      11.94161946
Pd       1.36546519      12.37385816      11.92985333
Pd       4.11614290      12.40030574      11.96954778
Pd       6.86816975      12.39901143      11.97280504
Pd       9.63028672      12.36702810      11.91406436
Pd      12.37350773      12.34844388      11.90475896
Pd      13.65630733      13.66619654      13.89512224
Pd       2.63713277       0.08993414      13.83619340
Pd       5.51994202      13.74589137      14.00979133
Pd       8.27665040       0.01572128      14.00545524
Pd      10.98302719      13.71124399      13.83339407
Pd       0.05950368       2.65978090      13.92859177
Pd       2.88108218       2.83755577      14.14702099
Pd       5.68299583       2.76037926      14.07699783
Pd       8.38707300       2.76323139      14.04001800
Pd      11.05897424       2.72066632      13.86775023
Pd      13.71444120       5.55993727      14.02331723
Pd       2.75291983       5.60911477      14.02801013
Pd       5.44782428       5.48250100      14.02801190
Pd       8.20025170       5.51256073      13.96996888
Pd      10.93928498       5.44543476      13.92765112
Pd       0.01774358       8.27677160      13.93171294
Pd       2.79691705       8.32053476      13.92752580
Pd       5.58505259       8.23410645      13.92694573
Pd       8.34395861       8.24299142      13.97512590
Pd      11.05024335       8.19875040      14.11777748
Pd      13.70841826      10.97629751      13.97598502
Pd       2.61141524      11.07269959      14.01454689
Pd       5.41733244      11.00258825      13.98334703
Pd       8.18575805      11.00595508      14.03934419
Pd      10.95906604      10.98547894      13.88131122
Pd      12.46635662       6.78826214      16.26299425
Pd      10.02248378       9.75997718      16.28467582
Pd       3.52941011      12.79696061      16.06551517
Pd       1.49053112       7.17341752      15.93570180
Pd      12.73130057       9.62141378      16.18417172
Pd      10.06824460       1.28951064      15.84915715
Pd       5.97142134       0.82814196      16.82325381
Pd       7.07272716       8.43599482      16.45791417
Pd       6.36326459      11.41743515      16.51815813
Pd      12.04457740      13.09208524      16.61536350
Pd       1.66726282       4.50605981      16.33649503
Pd       4.83607285       3.91712164      16.53018919
Pd      11.98588025       3.42882046      16.47368193
Pd       3.88781812       9.75135188      16.06274221
Pd       6.81370995       5.76453487      16.29412341
Pd       8.33762473      13.07396947      16.83413603
Pd       9.69369764       6.63114597      16.37924142
Pd       8.31539362       2.99573718      16.98020720
Pd       1.25458712       0.95023072      16.02100727
Pd       4.17577018       6.62068142      16.40375464
O       10.29488578       2.73300779      17.27154541
O       11.48369455      11.17100059      15.87718585
O        0.12035188      13.06666225      15.83821666
O       13.25565416       1.86766451      17.09367885
O       12.64574102       0.87875754      17.79063894
O        5.17042372       8.28566855      15.97536783
O        4.41750144       0.74436983      15.63872228
O        2.34927397       2.55215235      16.11155643
O       10.24816775      13.54192875      17.22969517
O        2.53309873      11.12657760      16.10571754
O        5.19319363      12.76753030      17.39831581
O        3.35791549       5.01982289      17.19362241
O        8.45157178       5.01424583      17.04917884
O        8.90823492       8.33594225      17.05252919
O        6.35386963       2.70573314      16.16553231
O       13.66971879       4.01302483      15.50251670
O       11.16375016       5.28434996      15.95857874
O        0.00236554       8.12323651      16.91064911
O        7.76057917       1.05490322      17.65687843
O        8.40332050      11.20144711      16.11479646
