115
Lattice="13.75323 0.0 0.0 0.0 13.75323 0.0 0.0 0.0 23.89" Properties=species:S:1:pos:R:3 entry_id=2 rank=20 energy=-571.218505859375 parent_id=1 pbc="T T F"
Pd       0.00000000       0.00000000      10.00000000
Pd       2.75064538       0.00000000      10.00000000
Pd       5.50129076       0.00000000      10.00000000
Pd       8.25193614       0.00000000      10.00000000
Pd      11.00258152       0.00000000      10.00000000
Pd       0.00000000       2.75064538      10.00000000
Pd       2.75064538       2.75064538      10.00000000
Pd       5.50129076       2.75064538      10.00000000
Pd       8.25193614       2.75064538      10.00000000
Pd      11.00258152       2.75064538      10.00000000
Pd       0.00000000       5.50129076      10.00000000
Pd       2.75064538       5.50129076      10.00000000
Pd       5.50129076       5.50129076      10.00000000
Pd       8.25193614       5.50129076      10.00000000
Pd      11.00258152       5.50129076      10.00000000
Pd       0.00000000       8.25193614      10.00000000
Pd       2.75064538       8.25193614      10.00000000
Pd       5.50129076       8.25193614      10.00000000
Pd       8.25193614       8.25193614      10.00000000
Pd      11.00258152       8.25193614      10.00000000
Pd       0.00000000      11.00258152      10.00000000
Pd       2.75064538      11.00258152      10.00000000
Pd       5.50129076      11.00258152      10.00000000
Pd       8.25193614      11.00258152      10.00000000
Pd      11.00258152      11.00258152      10.00000000
Pd       1.34029857       1.38422048      12.05973572
Pd       4.07324136       1.37910214      11.97839418
Pd       6.85187616       1.35877196      11.98235563
Pd       9.57512057       1.39592898      11.89594876
Pd      12.38684272       1.37174114      11.92044161
Pd       1.37571708       4.12913448      11.96525609
Pd       4.10569597       4.14077432      11.99092129
Pd       6.84005322       4.10860151      11.98413027
Pd       9.56728621       4.13975942      11.94281254
Pd      12.36578195       4.13265160      11.93417299
Pd       1.37110082       6.89256210      11.94010419
Pd       4.13935064       6.87026939      11.96482277
Pd       6.87097415       6.85831372      11.95140951
Pd       9.64205429       6.82915781      11.94515418
Pd      12.39111484       6.85622887      11.94896407
Pd       1.37133957       9.68525172      11.99969023
Pd       4.11777592       9.66324146      11.95099537
Pd       6.89476706       9.64088005      11.95142944
Pd       9.64982872       9.59779534      11.89439304
Pd      12.42487279       9.60955999      11.94161946
Pd       1.35176113      12.42452572      12.02394780
Pd       4.08471322      12.39961004      11.99121290
Pd       6.86816975      12.39901143      11.97280504
Pd       9.63028672      12.36702810      11.91406436
Pd      12.40471927      12.33008467      11.98363383
Pd      13.63771749       0.03234978      14.10030706
Pd       2.65171059       0.13471104      14.11889924
Pd       5.60464299      13.70595263      13.96126418
Pd       8.33475684      13.69709883      14.02151466
Pd      10.98308729       0.08645710      13.75864465
Pd      13.63201505       2.79159084      13.96838499
Pd       2.66853674       2.89918371      14.07351219
Pd       5.43559010       2.67052211      13.94097431
Pd       8.25419202       2.66390990      13.96671622
Pd      10.92553070       2.72808529      13.97009297
Pd       0.07673899       5.52802556      13.94331738
Pd       2.77631421       5.61266263      14.00015369
Pd       5.50188672       5.42129094      14.09499861
Pd       8.32636765       5.39366682      14.01814889
Pd      11.06113934       5.41513380      13.95144175
Pd       0.08015115       8.30416506      13.94980941
Pd       2.83824018       8.33213102      13.95546354
Pd       5.59676288       8.22960202      13.98008754
Pd       8.30671200       8.19004592      13.96889361
Pd      11.03967949       8.23228759      13.90548092
Pd      13.61066249      11.02766305      14.27835490
Pd       2.74318408      11.10367367      14.00024607
Pd       5.46257853      10.93960589      13.91904302
Pd       8.16321847      10.95087158      13.98053734
Pd      10.89834687      11.00682413      13.90652909
Pd      12.62014386       6.74086062      16.08047390
Pd       9.06920048       9.47368937      16.39134284
Pd       1.91287167      12.65763504      16.70044711
Pd       1.64304573       7.27884852      16.31619794
Pd      12.13789721       9.51504879      16.07283303
Pd       9.39615204       1.68514971      16.37114574
Pd       4.68248510       0.67177397      17.48752198
Pd       5.98552791       9.83091013      16.44194363
Pd       4.50036765      12.00546095      16.20053318
Pd      11.06710177      12.80791576      16.15224060
Pd       1.23891677       4.61595224      16.34044192
Pd       3.90112374       4.36233638      16.27839170
Pd      11.69607278       3.38792917      16.64533171
Pd       2.96059507       9.75277369      16.39773558
Pd       7.16063493       6.73862487      16.23216516
Pd       7.06591348      12.95040902      16.50254084
Pd       9.83112307       6.93006991      15.95374313
Pd       6.98457172       2.85252485      16.37930686
Pd       1.12621731       1.47815796      15.99842560
Pd       4.35266809       7.02932819      15.99321078
O        9.84054082       3.35413043      17.17207595
O       10.59610664      10.71759921      15.98102536
O       12.99980778      12.56794832      15.65625274
O       12.17028784       1.57564777      17.38208462
O       11.09563116       0.75522369      17.40893470
O        4.47757809       8.73982216      17.09719718
O        4.22924426       0.14349841      15.43783442
O        2.00775259       1.49757775      17.80054948
O        9.07046229      13.48046469      16.01030796
O        1.51746993      10.96707023      15.71749097
O        2.73114729       0.29554250      17.93997207
O        2.74486205       5.78593433      17.06607531
O        7.04679984       4.84119800      15.58211792
O        7.48895827       8.48180257      17.05538257
O        5.01076656       2.84710710      15.90842533
O       13.61825061       3.24463856      16.01164393
O       11.29489335       5.30098203      16.02669726
O       13.74973996       8.37035894      16.07181487
O        6.60677451       1.01411975      17.20434078
O        7.53548493      11.05811734      16.00345063
