115
Lattice="13.75323 0.0 0.0 0.0 13.75323 0.0 0.0 0.0 23.89" Properties=species:S:1:pos:R:3 entry_id=9 rank=5 energy=-573.4932861328125 parent_id=8 pbc="T T F"
Pd       0.00000000       0.00000000      10.00000000
Pd       2.75064538       0.00000000      10.00000000
Pd       5.50129076       0.00000000      10.00000000
Pd       8.25193614       0.00000000      10.00000000
Pd      11.00258152       0.00000000      10.00000000
Pd       0.00000000       2.75064538      10.00000000
Pd       2.75064538       2.75064538      10.00000000
Pd       5.50129076       2.75064538      10.00000000
Pd       8.25193614       2.75064538      10.00000000
Pd      11.00258152       2.75064538      10.00000000
Pd       0.00000000       5.50129076      10.00000000
Pd       2.75064538       5.50129076      10.00000000
Pd       5.50129076       5.50129076      10.00000000
Pd       8.25193614       5.50129076      10.00000000
Pd      11.00258152       5.50129076      10.00000000
Pd       0.00000000       8.25193614      10.00000000
Pd       2.75064538       8.25193614      10.00000000
Pd       5.50129076       8.25193614      10.00000000
Pd       8.25193614       8.25193614      10.00000000
Pd      11.00258152       8.25193614      10.00000000
Pd       0.00000000      11.00258152      10.00000000
Pd       2.75064538      11.00258152      10.00000000
Pd       5.50129076      11.00258152      10.00000000
Pd       8.25193614      11.00258152      10.00000000
Pd      11.00258152      11.00258152      10.00000000
Pd       1.37052935       1.41231327      11.96302331
Pd       4.13425767       1.41057230      12.01039858
Pd       6.85860055       1.36199938      11.99090061
Pd       9.57512057       1.39592898      11.89594876
Pd      12.38684272       1.37174114      11.92044161
Pd       1.38347299       4.14912476      11.99847860
Pd       4.10838056       4.10249164      12.01604845
Pd       6.85419355       4.11533677      11.97477427
Pd       9.56728621       4.13975942      11.94281254
Pd      12.36578195       4.13265160      11.93417299
Pd       1.37110082       6.89256210      11.94010419
Pd       4.13935064       6.87026939      11.96482277
Pd       6.87097415       6.85831372      11.95140951
Pd       9.64205429       6.82915781      11.94515418
Pd      12.39111484       6.85622887      11.94896407
Pd       1.40186208       9.65348714      11.96540359
Pd       4.11777592       9.66324146      11.95099537
Pd       6.89476706       9.64088005      11.95142944
Pd       9.64982872       9.59779534      11.89439304
Pd      12.42487279       9.60955999      11.94161946
Pd       1.39159610      12.37874860      11.96174860
Pd       4.12691638      12.39066578      11.99922607
Pd       6.86816975      12.39901143      11.97280504
Pd       9.63028672      12.36702810      11.91406436
Pd      12.38737320      12.36169055      11.91139501
Pd      13.65425078      13.67478224      13.92474247
Pd       2.62905541       0.07868470      13.90915890
Pd       5.52380999      13.72756849      14.04080925
Pd       8.26725713      13.73496018      13.99781825
Pd      10.97449723      13.75082117      13.85021037
Pd       0.03711412       2.69218583      13.95095573
Pd       2.85364431       2.84104607      14.15933220
Pd       5.63994869       2.75006584      14.03858293
Pd       8.35282837       2.69287324      13.97335772
Pd      11.04930851       2.75872359      13.85003802
Pd      13.67369427       5.58417148      14.02775368
Pd       2.70014070       5.58051998      13.98584347
Pd       5.45367921       5.46700561      13.98480016
Pd       8.19247312       5.41535308      14.04096509
Pd      10.93180542       5.49517537      13.92403876
Pd      13.74271295       8.30726809      13.91871913
Pd       2.78417075       8.32481437      13.94736825
Pd       5.50981398       8.20500984      13.93643747
Pd       8.33657368       8.18051626      13.88424201
Pd      11.03088246       8.27637373      14.09793941
Pd       0.00855357      10.99591443      13.97034923
Pd       2.69199618      11.02717016      14.06081240
Pd       5.47828495      10.94149977      14.02260275
Pd       8.23372082      10.98115572      14.07547869
Pd      11.00403493      11.04014963      13.88649896
Pd      12.38251883       6.92254516      16.28371176
Pd       9.99692587       9.94604714      16.30178468
Pd       3.67422671      12.67793283      16.05244665
Pd       1.34866837       7.20916369      15.92505162
Pd      12.70897245       9.73948946      16.18672825
Pd      10.05354488       1.39734565      15.84054091
Pd       5.85131285       1.01956587      16.83166536
Pd       7.00020204       9.10457460      15.97389718
Pd       6.32805129      11.68911659      16.55151421
Pd      12.00343694      13.22915906      16.66039056
Pd       1.63137850       4.61480416      16.36509084
Pd       4.79733341       4.22464138      16.47861872
Pd      11.88475034       3.58114154      16.44682004
Pd       4.32808041       9.50446175      16.27956873
Pd       6.68662880       6.39351029      16.36852499
Pd       8.28540120      13.33008828      16.86143024
Pd       9.63004010       6.91619547      16.30338431
Pd       8.15155772       3.14876266      16.75131958
Pd       1.19569238       1.08694846      16.03707124
Pd       3.98054926       6.85366377      15.95615852
O       10.12791031       2.94198481      17.16250047
O       11.47521155      11.30479610      15.90248567
O        0.08432669      13.19556632      15.89746883
O       13.17631032       2.01929034      17.08930250
O       12.58274158       1.04133099      17.81084231
O        5.50630495       7.94718828      16.96904101
O        4.31194548       0.74896236      15.61885133
O        2.30789027       2.67198997      16.13266274
O       10.20986288      13.70933892      17.28035931
O        2.93139564      10.87219459      16.09613020
O        5.16253608      12.98331557      17.52481625
O        3.31230075       5.29586140      17.14619238
O        8.18333210       5.09820542      16.09905796
O        8.75484322       8.57400328      16.92484400
O        6.20090891       2.88992685      16.09864850
O       13.62773351       4.08064755      15.52512362
O       11.05980848       5.46048381      15.96561132
O       13.69465742       8.23153947      16.93799307
O        7.66144169       1.32438286      17.63551374
O        8.39283526      11.45735634      16.15090490
