115
Lattice="13.75323 0.0 0.0 0.0 13.75323 0.0 0.0 0.0 23.89" Properties=species:S:1:pos:R:3 entry_id=8 rank=6 energy=-573.490234375 parent_id=7 pbc="T T F"
Pd       0.00000000       0.00000000      10.00000000
Pd       2.75064538       0.00000000      10.00000000
Pd       5.50129076       0.00000000      10.00000000
Pd       8.25193614       0.00000000      10.00000000
Pd      11.00258152       0.00000000      10.00000000
Pd       0.00000000       2.75064538      10.00000000
Pd       2.75064538       2.75064538      10.00000000
Pd       5.50129076       2.75064538      10.00000000
Pd       8.25193614       2.75064538      10.00000000
Pd      11.00258152       2.75064538      10.00000000
Pd       0.00000000       5.50129076      10.00000000
Pd       2.75064538       5.50129076      10.00000000
Pd       5.50129076       5.50129076      10.00000000
Pd       8.25193614       5.50129076      10.00000000
Pd      11.00258152       5.50129076      10.00000000
Pd       0.00000000       8.25193614      10.00000000
Pd       2.75064538       8.25193614      10.00000000
Pd       5.50129076       8.25193614      10.00000000
Pd       8.25193614       8.25193614      10.00000000
Pd      11.00258152       8.25193614      10.00000000
Pd       0.00000000      11.00258152      10.00000000
Pd       2.75064538      11.00258152      10.00000000
Pd       5.50129076      11.00258152      10.00000000
Pd       8.25193614      11.00258152      10.00000000
Pd      11.00258152      11.00258152      10.00000000
Pd       1.37018243       1.40836333      11.95925263
Pd       4.13274047       1.41227111      12.00855425
Pd       6.85647659       1.36133128      11.99139846
Pd       9.57512057       1.39592898      11.89594876
Pd      12.38684272       1.37174114      11.92044161
Pd       1.38244482       4.14400736      11.99759863
Pd       4.10679060       4.10248414      12.01629299
Pd       6.85095766       4.11372393      11.97301553
Pd       9.56728621       4.13975942      11.94281254
Pd      12.36578195       4.13265160      11.93417299
Pd       1.37110082       6.89256210      11.94010419
Pd       4.13935064       6.87026939      11.96482277
Pd       6.87097415       6.85831372      11.95140951
Pd       9.64205429       6.82915781      11.94515418
Pd      12.39111484       6.85622887      11.94896407
Pd       1.39893015       9.64984552      11.96543791
Pd       4.11777592       9.66324146      11.95099537
Pd       6.89476706       9.64088005      11.95142944
Pd       9.64982872       9.59779534      11.89439304
Pd      12.42487279       9.60955999      11.94161946
Pd       1.38521261      12.37073713      11.95869440
Pd       4.12510199      12.39361788      11.99467648
Pd       6.86816975      12.39901143      11.97280504
Pd       9.63028672      12.36702810      11.91406436
Pd      12.38276949      12.35754849      11.90863126
Pd      13.64649547      13.67129374      13.91326353
Pd       2.62238624       0.06415431      13.89740021
Pd       5.51633480      13.73141163      14.04016574
Pd       8.26009073      13.73114228      14.00186132
Pd      10.96941533      13.74677433      13.84656238
Pd       0.03015983       2.68093736      13.94568538
Pd       2.84593218       2.82595143      14.16010704
Pd       5.63105614       2.75336474      14.03964124
Pd       8.34429773       2.69007352      13.96959148
Pd      11.04214790       2.75547496      13.85016633
Pd      13.66560550       5.57453964      14.02345828
Pd       2.69948541       5.56917896      13.98237582
Pd       5.45424195       5.46987972      13.98719964
Pd       8.19074832       5.41161025      14.03847692
Pd      10.92759119       5.49196285      13.92452140
Pd      13.73705666       8.30463915      13.91521649
Pd       2.78262135       8.31360316      13.94473292
Pd       5.51185627       8.20801259      13.93993236
Pd       8.33173236       8.17889565      13.88798370
Pd      11.02636507       8.27056972      14.09686723
Pd       0.00328548      10.99337723      13.98076712
Pd       2.68874054      11.01201444      14.05316372
Pd       5.47358530      10.94375261      14.01540462
Pd       8.22787226      10.97664610      14.07467220
Pd      10.99703768      11.03278979      13.88455898
Pd      12.37037163       6.90696834      16.27842332
Pd       9.97310944       9.92172647      16.30616206
Pd       3.65082974      12.67380016      16.04796894
Pd       1.33633989       7.18083285      15.90536807
Pd      12.68842116       9.71864710      16.18014238
Pd      10.03082976       1.38218675      15.83408721
Pd       5.83299890       1.01008308      16.83463562
Pd       7.00027811       9.09999357      15.98881056
Pd       6.29274593      11.68243340      16.55146235
Pd      11.98316160      13.19987445      16.64655075
Pd       1.62028849       4.58712802      16.35178848
Pd       4.78752394       4.21012032      16.47529568
Pd      11.87282743       3.56175284      16.44282183
Pd       4.32108180       9.49464302      16.27295868
Pd       6.68133202       6.38562654      16.36734666
Pd       8.25887699      13.31387150      16.87002166
Pd       9.61826803       6.90090090      16.31124222
Pd       8.14188716       3.13548530      16.75463261
Pd       1.18356045       1.04580497      16.03152144
Pd       3.96986052       6.84347177      15.96274777
O       10.11899046       2.92300453      17.16292452
O       11.44600174      11.27952984      15.90134834
O        0.06588549      13.15394349      15.88077192
O       13.16297787       1.98696742      17.07243589
O       12.57106695       1.00946450      17.79518939
O        5.50205513       7.94064385      16.96555306
O        4.29786086       0.74259498      15.61765971
O        2.28993809       2.63721101      16.12951585
O       10.18958526      13.68693227      17.26241374
O        2.92076012      10.86296389      16.08786664
O        5.13209429      12.97798070      17.52870647
O        3.29653853       5.27455555      17.13564708
O        8.17495765       5.08459443      16.09661118
O        8.74418600       8.54998182      16.95389275
O        6.19365628       2.87795556      16.09943335
O       13.61310790       4.06198277      15.51801272
O       11.04472598       5.44519337      15.96714634
O       13.68947720       8.21448606      16.91773810
O        7.64348296       1.31287094      17.64191452
O        8.35832365      11.43970630      16.15873247
