115
Lattice="13.75323 0.0 0.0 0.0 13.75323 0.0 0.0 0.0 23.89" Properties=species:S:1:pos:R:3 entry_id=6 rank=16 energy=-573.039794921875 parent_id=5 pbc="T T F"
Pd       0.00000000       0.00000000      10.00000000
Pd       2.75064538       0.00000000      10.00000000
Pd       5.50129076       0.00000000      10.00000000
Pd       8.25193614       0.00000000      10.00000000
Pd      11.00258152       0.00000000      10.00000000
Pd       0.00000000       2.75064538      10.00000000
Pd       2.75064538       2.75064538      10.00000000
Pd       5.50129076       2.75064538      10.00000000
Pd       8.25193614       2.75064538      10.00000000
Pd      11.00258152       2.75064538      10.00000000
Pd       0.00000000       5.50129076      10.00000000
Pd       2.75064538       5.50129076      10.00000000
Pd       5.50129076       5.50129076      10.00000000
Pd       8.25193614       5.50129076      10.00000000
Pd      11.00258152       5.50129076      10.00000000
Pd       0.00000000       8.25193614      10.00000000
Pd       2.75064538       8.25193614      10.00000000
Pd       5.50129076       8.25193614      10.00000000
Pd       8.25193614       8.25193614      10.00000000
Pd      11.00258152       8.25193614      10.00000000
Pd       0.00000000      11.00258152      10.00000000
Pd       2.75064538      11.00258152      10.00000000
Pd       5.50129076      11.00258152      10.00000000
Pd       8.25193614      11.00258152      10.00000000
Pd      11.00258152      11.00258152      10.00000000
Pd       1.35825327       1.39984997      11.99665943
Pd       4.08541557       1.42128755      11.98284786
Pd       6.82609885       1.38614615      11.95937359
Pd       9.57512057       1.39592898      11.89594876
Pd      12.38684272       1.37174114      11.92044161
Pd       1.39274765       4.12653311      12.03159965
Pd       4.09041364       4.13311653      12.02397238
Pd       6.83931827       4.14009223      11.97939225
Pd       9.56728621       4.13975942      11.94281254
Pd      12.36578195       4.13265160      11.93417299
Pd       1.37110082       6.89256210      11.94010419
Pd       4.13935064       6.87026939      11.96482277
Pd       6.87097415       6.85831372      11.95140951
Pd       9.64205429       6.82915781      11.94515418
Pd      12.39111484       6.85622887      11.94896407
Pd       1.38589328       9.63848899      11.95563186
Pd       4.11777592       9.66324146      11.95099537
Pd       6.89476706       9.64088005      11.95142944
Pd       9.64982872       9.59779534      11.89439304
Pd      12.42487279       9.60955999      11.94161946
Pd       1.37852334      12.41199864      11.97602942
Pd       4.11690986      12.41448174      11.96610253
Pd       6.86816975      12.39901143      11.97280504
Pd       9.63028672      12.36702810      11.91406436
Pd      12.39014281      12.33823064      11.92999717
Pd      13.61440706      13.62926772      13.95502587
Pd       2.63104105       0.06139065      14.05521876
Pd       5.50604874      13.74052017      13.99411533
Pd       8.22575400      13.74513886      13.93407351
Pd      10.94706735      13.73407936      13.85615665
Pd      13.69596182       2.63383412      13.96844872
Pd       2.70473880       2.85885661      14.26603546
Pd       5.54101285       2.84020590      13.97824919
Pd       8.25954000       2.71148164      13.92574031
Pd      10.97323257       2.71693014      13.86940247
Pd       0.00332900       5.47802921      14.03564907
Pd       2.77517119       5.60056288      14.03423668
Pd       5.51310369       5.58483858      14.02326655
Pd       8.25247250       5.41405506      14.03809838
Pd      10.98517345       5.45321590      13.91682714
Pd       0.06695525       8.22387707      13.96040392
Pd       2.79651637       8.31377188      13.95450857
Pd       5.56269143       8.33637488      13.95017002
Pd       8.32798426       8.27275979      13.89848956
Pd      11.02725738       8.23357478      14.04424275
Pd       0.06663758      10.95934764      14.04128766
Pd       2.79524924      11.08081949      13.92681125
Pd       5.50972447      11.01542840      13.95779963
Pd       8.24203322      11.03066805      14.00415782
Pd      11.01285841      11.01282627      13.89676602
Pd      12.47384109       6.83588830      16.07280299
Pd       9.65663220       9.66368528      16.26852288
Pd       2.64666243      12.55568830      16.52031918
Pd       1.68208757       7.18015952      16.36144468
Pd      12.44390797       9.75227133      16.04710545
Pd       9.72789654       1.31058701      15.78828199
Pd       5.29688485       1.26579178      16.61411995
Pd       6.48036809       9.83809613      16.32321779
Pd       5.26519649      12.15672949      16.34339701
Pd      11.58423301      13.10900475      16.63398127
Pd       1.48626990       4.54440970      16.35780943
Pd       4.41373318       4.50282000      16.33958141
Pd      11.69762732       3.44663531      16.47229380
Pd       3.29899739       9.83428424      16.28612573
Pd       6.99062494       7.01951579      15.90475799
Pd       7.73474393      13.12127214      16.64646350
Pd       9.70188200       6.74841604      16.32583998
Pd       7.88521313       3.15875587      16.65598458
Pd       0.89676138       0.96734343      16.17880353
Pd       4.33420083       7.15048065      15.99931747
O        9.85958262       2.84525049      17.08693343
O       11.05269936      11.15759628      15.96633836
O       13.48000157      13.11863163      15.94490289
O       12.83497638       1.85685565      17.18222502
O       12.13858118       0.89566349      17.82941055
O        4.87099522       8.87004791      16.95876922
O        4.07958570       1.32881079      14.95554091
O        2.02979423       2.54894953      16.24470008
O        9.70365430      13.53797376      17.10933497
O        1.73166261      10.98185604      15.74006110
O        4.16551357      13.52342529      17.33275668
O        2.97961519       5.71958877      17.07129493
O        8.15975149       5.13362896      16.10976741
O        8.48822730       8.17924073      16.91164219
O        5.89995868       3.15421196      16.06150796
O       13.48012077       3.92599449      15.58513396
O       11.11653385       5.37041253      15.98790684
O        0.03914624       8.30362642      16.10878998
O        7.16989513       1.21912223      17.33938733
O        8.04001664      11.13935000      16.09188633
