115
Lattice="13.75323 0.0 0.0 0.0 13.75323 0.0 0.0 0.0 23.89" Properties=species:S:1:pos:R:3 entry_id=20 rank=4 energy=-573.537353515625 parent_id=16 pbc="T T F"
Pd       0.00000000       0.00000000      10.00000000
Pd       2.75064538       0.00000000      10.00000000
Pd       5.50129076       0.00000000      10.00000000
Pd       8.25193614       0.00000000      10.00000000
Pd      11.00258152       0.00000000      10.00000000
Pd       0.00000000       2.75064538      10.00000000
Pd       2.75064538       2.75064538      10.00000000
Pd       5.50129076       2.75064538      10.00000000
Pd       8.25193614       2.75064538      10.00000000
Pd      11.00258152       2.75064538      10.00000000
Pd       0.00000000       5.50129076      10.00000000
Pd       2.75064538       5.50129076      10.00000000
Pd       5.50129076       5.50129076      10.00000000
Pd       8.25193614       5.50129076      10.00000000
Pd      11.00258152       5.50129076      10.00000000
Pd       0.00000000       8.25193614      10.00000000
Pd       2.75064538       8.25193614      10.00000000
Pd       5.50129076       8.25193614      10.00000000
Pd       8.25193614       8.25193614      10.00000000
Pd      11.00258152       8.25193614      10.00000000
Pd       0.00000000      11.00258152      10.00000000
Pd       2.75064538      11.00258152      10.00000000
Pd       5.50129076      11.00258152      10.00000000
Pd       8.25193614      11.00258152      10.00000000
Pd      11.00258152      11.00258152      10.00000000
Pd       1.41040377       1.40295751      12.02683673
Pd       4.12872288       1.39772095      12.03567931
Pd       6.84881814       1.34647210      11.99804167
Pd       9.57512057       1.39592898      11.89594876
Pd      12.38684272       1.37174114      11.92044161
Pd       1.36748251       4.14948635      11.99684991
Pd       4.08411440       4.10001047      12.01079158
Pd       6.82695497       4.11199365      11.96684284
Pd       9.56728621       4.13975942      11.94281254
Pd      12.36578195       4.13265160      11.93417299
Pd       1.37110082       6.89256210      11.94010419
Pd       4.13935064       6.87026939      11.96482277
Pd       6.87097415       6.85831372      11.95140951
Pd       9.64205429       6.82915781      11.94515418
Pd      12.39111484       6.85622887      11.94896407
Pd       1.38885056       9.68483898      11.98538270
Pd       4.11777592       9.66324146      11.95099537
Pd       6.89476706       9.64088005      11.95142944
Pd       9.64982872       9.59779534      11.89439304
Pd      12.42487279       9.60955999      11.94161946
Pd       1.40324246      12.41111562      11.99503899
Pd       4.12590834      12.40110552      12.01712493
Pd       6.86816975      12.39901143      11.97280504
Pd       9.63028672      12.36702810      11.91406436
Pd      12.38661052      12.35453426      11.93296076
Pd      13.73412613      13.72481480      13.91124177
Pd       2.75470561       0.16384290      14.15980717
Pd       5.56228002      13.67657701      14.06667516
Pd       8.32553718       0.03676772      13.97359337
Pd      11.04140481      13.75257252      13.87766436
Pd       0.00442457       2.73641252      13.96103341
Pd       2.81767456       2.89434246      14.18301401
Pd       5.57267523       2.71093769      14.03340209
Pd       8.28428695       2.72299186      13.92170708
Pd      11.02982313       2.74884596      13.82579047
Pd      13.61240766       5.61239870      14.06873066
Pd       2.64437833       5.59917432      13.98625326
Pd       5.40534285       5.44937877      13.99510732
Pd       8.15813284       5.40410911      14.03417223
Pd      10.86310871       5.47547941      13.96151512
Pd       0.00528338       8.32262566      13.91274582
Pd       2.77524477       8.33611397      13.96086641
Pd       5.53169288       8.20554590      13.97470874
Pd       8.31150124       8.10595139      13.97585671
Pd      11.06452053       8.21225766      13.93113148
Pd      13.70772669      11.03421553      14.03090640
Pd       2.68140729      11.10400764      14.02321793
Pd       5.47042159      10.93434633      14.09791284
Pd       8.18458451      10.78839515      13.91977157
Pd      10.88790413      10.96552842      13.95230303
Pd      12.04978061       6.79457317      16.28039103
Pd       9.40410061      10.99924754      17.64755006
Pd       4.34919528      11.98363541      16.56144796
Pd       1.24784435       7.29207507      15.98295517
Pd      12.58610200       9.56689350      16.20781873
Pd       9.89053255       1.41931116      15.77636467
Pd       5.89015780       0.95746563      16.76231270
Pd       6.96125209       9.39849919      16.03397197
Pd       7.39711567      12.31484533      16.30069756
Pd      12.02404652      13.08108038      16.73682044
Pd       1.52007229       4.68659337      16.39679799
Pd       4.64535113       4.19694088      16.48781387
Pd      11.76938252       3.55573118      16.46366373
Pd       4.16437304       9.38131231      16.24648622
Pd       6.68307493       6.51104786      16.25721683
Pd       8.93181814       0.16430327      17.82352187
Pd       9.88581537       8.69040494      16.16965434
Pd       8.00098964       3.23783339      16.71031141
Pd       1.08594894       1.27029962      16.08648694
Pd       3.91289574       6.80421153      15.98505879
O        9.98635311       2.90800818      17.13118036
O       12.08291545      11.35792090      15.58447725
O        0.03016070      13.40740175      15.89131091
O       12.95592882       2.00014373      17.17646035
O       12.28401578       1.00494273      17.81923951
O        5.52140217       8.03310991      16.91553616
O        4.25513297       0.15540809      15.69950433
O        2.29028439       2.77356874      16.18668793
O       10.40631909      12.64835732      17.86558259
O        2.85486065      10.85043227      16.00578247
O        5.87919018      12.83693496      17.46010873
O        3.20767908       5.30949583      17.19630080
O        8.05775717       5.11945559      16.01445988
O        8.47327814       9.32865576      17.42661863
O        6.03147665       2.87068338      16.07185924
O       13.53447769       4.09874723      15.56347460
O       10.89784494       5.27138282      15.94539111
O       13.40099916       7.99854026      17.02177193
O        7.53688180       1.54609509      17.76381803
O        8.94947165      12.20021378      15.11044371
