115
Lattice="13.75323 0.0 0.0 0.0 13.75323 0.0 0.0 0.0 23.89" Properties=species:S:1:pos:R:3 entry_id=19 rank=12 energy=-573.3966674804688 parent_id=10 pbc="T T F"
Pd       0.00000000       0.00000000      10.00000000
Pd       2.75064538       0.00000000      10.00000000
Pd       5.50129076       0.00000000      10.00000000
Pd       8.25193614       0.00000000      10.00000000
Pd      11.00258152       0.00000000      10.00000000
Pd       0.00000000       2.75064538      10.00000000
Pd       2.75064538       2.75064538      10.00000000
Pd       5.50129076       2.75064538      10.00000000
Pd       8.25193614       2.75064538      10.00000000
Pd      11.00258152       2.75064538      10.00000000
Pd       0.00000000       5.50129076      10.00000000
Pd       2.75064538       5.50129076      10.00000000
Pd       5.50129076       5.50129076      10.00000000
Pd       8.25193614       5.50129076      10.00000000
Pd      11.00258152       5.50129076      10.00000000
Pd       0.00000000       8.25193614      10.00000000
Pd       2.75064538       8.25193614      10.00000000
Pd       5.50129076       8.25193614      10.00000000
Pd       8.25193614       8.25193614      10.00000000
Pd      11.00258152       8.25193614      10.00000000
Pd       0.00000000      11.00258152      10.00000000
Pd       2.75064538      11.00258152      10.00000000
Pd       5.50129076      11.00258152      10.00000000
Pd       8.25193614      11.00258152      10.00000000
Pd      11.00258152      11.00258152      10.00000000
Pd       1.37565656       1.41636324      11.93108787
Pd       4.15354937       1.43367738      11.99701344
Pd       6.87747344       1.37938614      12.00241592
Pd       9.57512057       1.39592898      11.89594876
Pd      12.38684272       1.37174114      11.92044161
Pd       1.39841307       4.15257529      12.00525645
Pd       4.12077352       4.11651333      12.03581419
Pd       6.85050320       4.11331470      11.99255086
Pd       9.56728621       4.13975942      11.94281254
Pd      12.36578195       4.13265160      11.93417299
Pd       1.37110082       6.89256210      11.94010419
Pd       4.13935064       6.87026939      11.96482277
Pd       6.87097415       6.85831372      11.95140951
Pd       9.64205429       6.82915781      11.94515418
Pd      12.39111484       6.85622887      11.94896407
Pd       1.39307704       9.64430260      11.96318236
Pd       4.11777592       9.66324146      11.95099537
Pd       6.89476706       9.64088005      11.95142944
Pd       9.64982872       9.59779534      11.89439304
Pd      12.42487279       9.60955999      11.94161946
Pd       1.36766885      12.36778160      11.92973759
Pd       4.11671764      12.40088318      11.96815925
Pd       6.86816975      12.39901143      11.97280504
Pd       9.63028672      12.36702810      11.91406436
Pd      12.37513749      12.34444116      11.90449109
Pd      13.66344256      13.65384194      13.89190761
Pd       2.64287586       0.08738832      13.83386110
Pd       5.51948927      13.74994248      14.00964975
Pd       8.27808013       0.00989295      14.00525658
Pd      10.99090041      13.69610754      13.82742362
Pd       0.06847431       2.64766183      13.92718752
Pd       2.88992015       2.83261327      14.15272642
Pd       5.69411739       2.76437791      14.08842199
Pd       8.39376872       2.76098930      14.04047033
Pd      11.06483565       2.70931076      13.86799796
Pd      13.70431391       5.54823652      14.02655787
Pd       2.74445111       5.60404677      14.02226815
Pd       5.44170819       5.48834123      14.03086600
Pd       8.19292665       5.51256643      13.97167864
Pd      10.92876753       5.43198679      13.93251684
Pd       0.02025828       8.26639390      13.93111292
Pd       2.80095641       8.31590569      13.93482465
Pd       5.59145229       8.24040232      13.92547017
Pd       8.34972913       8.24163320      13.97898122
Pd      11.05502475       8.18318621      14.11457703
Pd      13.70965523      10.96411849      13.98048836
Pd       2.61458570      11.06763016      14.01651118
Pd       5.41902811      11.00859254      13.98308082
Pd       8.18550148      11.00127173      14.03814698
Pd      10.95616310      10.97017765      13.88121701
Pd      12.45859120       6.76612389      16.27163214
Pd      10.03148637       9.72956763      16.29303342
Pd       3.53019794      12.79187031      16.06624471
Pd       1.48417665       7.15165038      15.93262046
Pd      12.73597550       9.59688628      16.18390721
Pd      10.06794708       1.26451252      15.84039686
Pd       5.97743472       0.80759997      16.82517360
Pd       7.09014677       8.41806668      16.47039535
Pd       6.36814022      11.38613027      16.52690545
Pd      12.04816638      13.06628047      16.60932601
Pd       1.67760630       4.49122132      16.33571936
Pd       4.84058177       3.91023732      16.53560032
Pd      11.99520233       3.40217168      16.47041088
Pd       3.90329046       9.74609936      16.06294643
Pd       6.81541842       5.74992670      16.30056692
Pd       8.34216091      13.04234674      16.83034832
Pd       9.69170620       6.59902228      16.39700145
Pd       8.31947573       2.96835397      16.97801114
Pd       1.25874235       0.92911135      16.02168886
Pd       4.18300381       6.62128886      16.39595419
O       10.30269717       2.70295719      17.26267735
O       11.48719431      11.14535649      15.87407732
O        0.12459127      13.04248534      15.83303840
O       13.26147333       1.83977233      17.09156341
O       12.64839172       0.85047989      17.78539695
O        5.18989847       8.28216556      15.97410816
O        4.42066937       0.73844937      15.64625088
O        2.35263147       2.53308795      16.11449884
O       10.25030772      13.51644899      17.21976334
O        2.54392586      11.11646864      16.10768113
O        5.19967075      12.74410257      17.39393431
O        3.36622487       5.02101030      17.19014661
O        8.44702181       4.98715587      17.05935580
O        8.92166729       8.30928115      17.07534839
O        6.35560210       2.69156510      16.18047179
O       13.67801584       3.99496374      15.50174357
O       11.16349881       5.25634249      15.96228293
O       13.75316850       8.09787818      16.91715542
O        7.76913460       1.02443517      17.65301236
O        8.40724296      11.16889515      16.11455114
