115
Lattice="13.75323 0.0 0.0 0.0 13.75323 0.0 0.0 0.0 23.89" Properties=species:S:1:pos:R:3 entry_id=13 rank=7 energy=-573.4581298828125 parent_id=12 pbc="T T F"
Pd       0.00000000       0.00000000      10.00000000
Pd       2.75064538       0.00000000      10.00000000
Pd       5.50129076       0.00000000      10.00000000
Pd       8.25193614       0.00000000      10.00000000
Pd      11.00258152       0.00000000      10.00000000
Pd       0.00000000       2.75064538      10.00000000
Pd       2.75064538       2.75064538      10.00000000
Pd       5.50129076       2.75064538      10.00000000
Pd       8.25193614       2.75064538      10.00000000
Pd      11.00258152       2.75064538      10.00000000
Pd       0.00000000       5.50129076      10.00000000
Pd       2.75064538       5.50129076      10.00000000
Pd       5.50129076       5.50129076      10.00000000
Pd       8.25193614       5.50129076      10.00000000
Pd      11.00258152       5.50129076      10.00000000
Pd       0.00000000       8.25193614      10.00000000
Pd       2.75064538       8.25193614      10.00000000
Pd       5.50129076       8.25193614      10.00000000
Pd       8.25193614       8.25193614      10.00000000
Pd      11.00258152       8.25193614      10.00000000
Pd       0.00000000      11.00258152      10.00000000
Pd       2.75064538      11.00258152      10.00000000
Pd       5.50129076      11.00258152      10.00000000
Pd       8.25193614      11.00258152      10.00000000
Pd      11.00258152      11.00258152      10.00000000
Pd       1.36521476       1.43072373      11.93966982
Pd       4.13693760       1.43367320      11.99425673
Pd       6.86241268       1.36889680      11.98822994
Pd       9.57512057       1.39592898      11.89594876
Pd      12.38684272       1.37174114      11.92044161
Pd       1.39566064       4.16136218      12.00814420
Pd       4.11383309       4.12123022      12.02946524
Pd       6.85299038       4.12446932      11.98902340
Pd       9.56728621       4.13975942      11.94281254
Pd      12.36578195       4.13265160      11.93417299
Pd       1.37110082       6.89256210      11.94010419
Pd       4.13935064       6.87026939      11.96482277
Pd       6.87097415       6.85831372      11.95140951
Pd       9.64205429       6.82915781      11.94515418
Pd      12.39111484       6.85622887      11.94896407
Pd       1.39356310       9.65273950      11.95672209
Pd       4.11777592       9.66324146      11.95099537
Pd       6.89476706       9.64088005      11.95142944
Pd       9.64982872       9.59779534      11.89439304
Pd      12.42487279       9.60955999      11.94161946
Pd       1.36551701      12.38681640      11.93450129
Pd       4.11130842      12.40482083      11.97293322
Pd       6.86816975      12.39901143      11.97280504
Pd       9.63028672      12.36702810      11.91406436
Pd      12.37721838      12.35392126      11.90304579
Pd      13.65331806      13.67137550      13.90954025
Pd       2.62364224       0.11695094      13.85257907
Pd       5.50576439      13.74311675      14.01559635
Pd       8.26489302      13.73207324      13.99692943
Pd      10.98017160      13.72739773      13.82266323
Pd       0.04585329       2.67554131      13.93847220
Pd       2.85589768       2.86869098      14.15828909
Pd       5.64462490       2.75942881      14.04224158
Pd       8.36109523       2.69413515      13.97459265
Pd      11.05169901       2.73861741      13.85766586
Pd      13.71077482       5.57966398      14.02780054
Pd       2.74263358       5.62924105      14.03899857
Pd       5.43313750       5.48679942      14.02559624
Pd       8.20844846       5.43716958      14.06280995
Pd      10.94995072       5.48013963      13.92062820
Pd       0.01904773       8.29043763      13.93088916
Pd       2.80326233       8.33343018      13.92539649
Pd       5.59018234       8.23474434      13.93594356
Pd       8.34422944       8.21511167      13.98099288
Pd      11.05773592       8.24995521      14.09714761
Pd      13.70829803      10.98512986      13.96269343
Pd       2.60977276      11.08815208      14.01011909
Pd       5.41444663      11.00220263      13.98129913
Pd       8.18150840      10.97947528      14.04710736
Pd      10.95821867      11.01610076      13.87936323
Pd      12.48301796       6.87236677      16.27940788
Pd      10.04342384       9.86864256      16.31081405
Pd       3.46297250      12.78344669      16.08824665
Pd       1.48124121       7.22970176      15.94339504
Pd      12.75070125       9.69269203      16.19371138
Pd      10.07014444       1.30210422      15.83029072
Pd       5.88550018       0.84731028      16.80803544
Pd       7.07969762       8.53875298      16.47518287
Pd       6.33391357      11.45790162      16.51994588
Pd      12.01514634      13.15493006      16.63939761
Pd       1.62041361       4.56907942      16.35114444
Pd       4.75430026       3.98050855      16.51341903
Pd      11.91352426       3.50814491      16.44591754
Pd       3.85595171       9.77926963      16.07184129
Pd       6.67089347       5.89394707      16.40676382
Pd       8.28725865      13.14351595      16.82306014
Pd       9.72700643       6.84273048      16.32857843
Pd       8.19600861       2.97915533      16.78704023
Pd       1.21935112       1.01961922      16.03836178
Pd       4.13545591       6.70847203      16.42808416
O       10.18393963       2.81683718      17.18232457
O       11.50179053      11.24285323      15.87428480
O        0.09138175      13.14111009      15.86971058
O       13.18986876       1.94383601      17.09019268
O       12.58485813       0.96201490      17.79724124
O        5.17913825       8.34683292      15.98564687
O        4.33473494       0.72671099      15.61720558
O        2.31885955       2.61853648      16.13034960
O       10.20284387      13.58528631      17.24218335
O        2.46404170      11.11604817      16.11036391
O        5.13622834      12.78460713      17.40589165
O        3.30802003       5.10554507      17.21224213
O        8.35292566       4.88509309      16.12689911
O        8.91155412       8.47579646      17.08594562
O        6.22807791       2.72425462      16.10834262
O       13.63241307       4.04918332      15.50560447
O       11.15304313       5.40626987      15.95691109
O        0.01982440       8.20102556      16.93395279
O        7.68906442       1.13468588      17.62501848
O        8.38402587      11.26799345      16.11497868
