115
Lattice="13.75323 0.0 0.0 0.0 13.75323 0.0 0.0 0.0 23.89" Properties=species:S:1:pos:R:3 entry_id=12 rank=8 energy=-573.454345703125 parent_id=11 pbc="T T F"
Pd       0.00000000       0.00000000      10.00000000
Pd       2.75064538       0.00000000      10.00000000
Pd       5.50129076       0.00000000      10.00000000
Pd       8.25193614       0.00000000      10.00000000
Pd      11.00258152       0.00000000      10.00000000
Pd       0.00000000       2.75064538      10.00000000
Pd       2.75064538       2.75064538      10.00000000
Pd       5.50129076       2.75064538      10.00000000
Pd       8.25193614       2.75064538      10.00000000
Pd      11.00258152       2.75064538      10.00000000
Pd       0.00000000       5.50129076      10.00000000
Pd       2.75064538       5.50129076      10.00000000
Pd       5.50129076       5.50129076      10.00000000
Pd       8.25193614       5.50129076      10.00000000
Pd      11.00258152       5.50129076      10.00000000
Pd       0.00000000       8.25193614      10.00000000
Pd       2.75064538       8.25193614      10.00000000
Pd       5.50129076       8.25193614      10.00000000
Pd       8.25193614       8.25193614      10.00000000
Pd      11.00258152       8.25193614      10.00000000
Pd       0.00000000      11.00258152      10.00000000
Pd       2.75064538      11.00258152      10.00000000
Pd       5.50129076      11.00258152      10.00000000
Pd       8.25193614      11.00258152      10.00000000
Pd      11.00258152      11.00258152      10.00000000
Pd       1.36645207       1.42695470      11.94875314
Pd       4.13574107       1.43004464      11.99457229
Pd       6.86262285       1.36886782      11.98544843
Pd       9.57512057       1.39592898      11.89594876
Pd      12.38684272       1.37174114      11.92044161
Pd       1.39309638       4.16072924      12.00769395
Pd       4.11151963       4.12044351      12.02648502
Pd       6.85308661       4.12391305      11.98889588
Pd       9.56728621       4.13975942      11.94281254
Pd      12.36578195       4.13265160      11.93417299
Pd       1.37110082       6.89256210      11.94010419
Pd       4.13935064       6.87026939      11.96482277
Pd       6.87097415       6.85831372      11.95140951
Pd       9.64205429       6.82915781      11.94515418
Pd      12.39111484       6.85622887      11.94896407
Pd       1.39392462       9.65403910      11.95471782
Pd       4.11777592       9.66324146      11.95099537
Pd       6.89476706       9.64088005      11.95142944
Pd       9.64982872       9.59779534      11.89439304
Pd      12.42487279       9.60955999      11.94161946
Pd       1.36777375      12.39041419      11.93973581
Pd       4.11093851      12.40261432      11.97451561
Pd       6.86816975      12.39901143      11.97280504
Pd       9.63028672      12.36702810      11.91406436
Pd      12.37764657      12.35488239      11.90527217
Pd      13.65647844      13.67175529      13.91476216
Pd       2.62941579       0.11680118      13.86957766
Pd       5.51110991      13.73673242      14.01503214
Pd       8.26466931      13.73614143      13.99140512
Pd      10.98174621      13.72684203      13.82716468
Pd       0.03691238       2.68120385      13.94203767
Pd       2.84603685       2.87124656      14.15370313
Pd       5.63663014       2.75328626      14.03799509
Pd       8.35331457       2.70049635      13.97069354
Pd      11.04609650       2.73741399      13.85366165
Pd      13.70713675       5.58462770      14.02940758
Pd       2.74152734       5.62729744      14.04137230
Pd       5.43425947       5.48189551      14.02114431
Pd       8.20784160       5.44567780      14.06554191
Pd      10.94935466       5.47743441      13.91656183
Pd       0.01594360       8.29452874      13.92801466
Pd       2.80119394       8.32800629      13.92425094
Pd       5.59049518       8.23024776      13.93226288
Pd       8.34142517       8.22333964      13.98016440
Pd      11.05336589       8.24807636      14.09699389
Pd      13.70670656      10.98705876      13.96287634
Pd       2.60777298      11.08175694      14.00993947
Pd       5.41183716      10.99656936      13.98362107
Pd       8.17825064      10.98633932      14.04827578
Pd      10.95783701      11.01300136      13.88117521
Pd      12.45859117       6.88122396      16.27698359
Pd      10.03657605       9.89185177      16.32184911
Pd       3.46419018      12.74175042      16.09580255
Pd       1.46440854       7.23591316      15.94371066
Pd      12.73801209       9.70270936      16.19378268
Pd      10.03816968       1.31125177      15.82016484
Pd       5.85898098       0.84182253      16.80993587
Pd       7.07767108       8.54274176      16.47967435
Pd       6.32588211      11.44398843      16.52676908
Pd      11.99464771      13.17484800      16.63883644
Pd       1.59791898       4.57770948      16.35239456
Pd       4.72507816       3.98491530      16.50688782
Pd      11.88207790       3.52323811      16.44074382
Pd       3.84774797       9.76389843      16.07371748
Pd       6.65126170       5.89477288      16.41097478
Pd       8.26357234      13.15334480      16.82734478
Pd       9.70386564       6.86760400      16.32343169
Pd       8.16026992       2.98077931      16.78458920
Pd       1.20865070       1.03243460      16.04248382
Pd       4.12007627       6.71621745      16.42263676
O       10.15034764       2.82658675      17.17271121
O       11.49376029      11.25970564      15.87773710
O        0.07602821      13.15771488      15.87962416
O       13.16416955       1.96420834      17.07995006
O       12.56182231       0.98455574      17.79169481
O        5.18106662       8.34306450      15.98002643
O        4.31685907       0.69169551      15.60876341
O        2.31163040       2.62950071      16.12924618
O       10.17958195      13.60376617      17.23801627
O        2.44374634      11.08770265      16.11272681
O        5.13130814      12.77555358      17.41714070
O        3.28519853       5.11795043      17.21067942
O        8.32294093       4.87875599      16.11963374
O        8.90618726       8.49979400      17.09748718
O        6.19186032       2.71965003      16.10516321
O       13.60918752       4.05720016      15.50788223
O       11.12214238       5.42132261      15.95253949
O       13.75255120       8.20450495      16.93234922
O        7.65908538       1.14157329      17.63145695
O        8.37764148      11.28121164      16.11615889
