115
Lattice="13.75323 0.0 0.0 0.0 13.75323 0.0 0.0 0.0 23.89" Properties=species:S:1:pos:R:3 entry_id=14 rank=26 energy=-572.67431640625 parent_id=13 pbc="T T F"
Pd       0.00000000       0.00000000      10.00000000
Pd       2.75064538       0.00000000      10.00000000
Pd       5.50129076       0.00000000      10.00000000
Pd       8.25193614       0.00000000      10.00000000
Pd      11.00258152       0.00000000      10.00000000
Pd       0.00000000       2.75064538      10.00000000
Pd       2.75064538       2.75064538      10.00000000
Pd       5.50129076       2.75064538      10.00000000
Pd       8.25193614       2.75064538      10.00000000
Pd      11.00258152       2.75064538      10.00000000
Pd       0.00000000       5.50129076      10.00000000
Pd       2.75064538       5.50129076      10.00000000
Pd       5.50129076       5.50129076      10.00000000
Pd       8.25193614       5.50129076      10.00000000
Pd      11.00258152       5.50129076      10.00000000
Pd       0.00000000       8.25193614      10.00000000
Pd       2.75064538       8.25193614      10.00000000
Pd       5.50129076       8.25193614      10.00000000
Pd       8.25193614       8.25193614      10.00000000
Pd      11.00258152       8.25193614      10.00000000
Pd       0.00000000      11.00258152      10.00000000
Pd       2.75064538      11.00258152      10.00000000
Pd       5.50129076      11.00258152      10.00000000
Pd       8.25193614      11.00258152      10.00000000
Pd      11.00258152      11.00258152      10.00000000
Pd       1.34814578       1.42598042      11.97782455
Pd       4.09769380       1.39782916      11.94008295
Pd       6.87020631       1.39967464      11.92289367
Pd       9.57512057       1.39592898      11.89594876
Pd      12.38684272       1.37174114      11.92044161
Pd       1.34220224       4.14098918      11.99097777
Pd       4.07693379       4.13763602      11.96470223
Pd       6.83576254       4.12380612      11.95033758
Pd       9.56728621       4.13975942      11.94281254
Pd      12.36578195       4.13265160      11.93417299
Pd       1.37110082       6.89256210      11.94010419
Pd       4.13935064       6.87026939      11.96482277
Pd       6.87097415       6.85831372      11.95140951
Pd       9.64205429       6.82915781      11.94515418
Pd      12.39111484       6.85622887      11.94896407
Pd       1.40263085       9.68297121      11.98794028
Pd       4.11777592       9.66324146      11.95099537
Pd       6.89476706       9.64088005      11.95142944
Pd       9.64982872       9.59779534      11.89439304
Pd      12.42487279       9.60955999      11.94161946
Pd       1.36462999      12.41835030      12.03000169
Pd       4.11057738      12.36556550      11.98296775
Pd       6.86816975      12.39901143      11.97280504
Pd       9.63028672      12.36702810      11.91406436
Pd      12.40175679      12.34894649      12.04100171
Pd      13.72394641       0.20389158      14.00946379
Pd       2.70742727       0.05997094      13.95575413
Pd       5.62594486       0.04480343      13.83988911
Pd       8.34859387      13.74991792      13.91500736
Pd      11.03464576      13.67792747      14.01602296
Pd      13.64039370       2.93297691      14.07287446
Pd       2.64584045       2.78744413      14.03705876
Pd       5.44146191       2.71267859      13.92730343
Pd       8.21250924       2.72213580      13.95106829
Pd      10.94840968       2.68039282      13.88288556
Pd      13.69183215       5.64148871      13.93604211
Pd       2.67312887       5.49315138      13.99245549
Pd       5.50146669       5.48406206      13.99408495
Pd       8.27650697       5.46709061      13.92299126
Pd      11.01392578       5.42330693      14.01148690
Pd       0.05439475       8.38034412      13.88551452
Pd       2.83588720       8.24790008      14.02109431
Pd       5.56981773       8.21110667      14.00687041
Pd       8.29297758       8.17656858      13.94075785
Pd      11.02586508       8.13630055      14.06501570
Pd      13.72298028      11.18821621      14.24426290
Pd       2.81603622      10.98268187      14.08784107
Pd       5.52337414      10.93561941      14.01194107
Pd       8.23413203      10.94625948      13.88739161
Pd      11.05519023      10.87831772      13.96308853
Pd      12.49000989       6.69912605      16.33207011
Pd       7.79907528       9.50645115      16.25857900
Pd       1.98244652      12.91212556      16.50836460
Pd       1.02434557       5.18159863      16.24512378
Pd      12.43365425       9.79678714      16.30783962
Pd       9.58083172       1.39880535      15.86931202
Pd       4.35280804       1.41903011      17.31930604
Pd       4.43575775       9.28873419      16.53914196
Pd       4.63379803      12.70259490      16.01570656
Pd       9.82577683      12.02800753      16.45236636
Pd       1.06315653       2.10436021      16.72062125
Pd       3.71341427       3.87252239      16.40429757
Pd      11.28778510       3.39935645      16.48942150
Pd       1.70735311       7.88284296      16.53406119
Pd       6.90700703       6.96634224      16.35748632
Pd       7.07878510       0.33321967      16.40808757
Pd       9.78724769       5.68674649      16.46559644
Pd       7.28867578       3.43201428      16.51229363
Pd      12.67906315      12.69837051      16.54540248
Pd       4.15407067       6.55359927      15.94304956
O        9.29813897       3.00975676      17.04257048
O        9.45242330      10.31061228      15.51990339
O       11.50303375      11.27862122      17.18261987
O       11.54743144       0.24856240      17.67271102
O       10.20849514       0.06129490      17.42741308
O        3.45950588       7.76758617      17.35405247
O        4.20384276       0.78285513      15.24887759
O        0.22954564       0.34206561      16.04572065
O        8.07069682      12.58811059      15.64521802
O        1.51389135      11.24012905      15.59534384
O        2.45727101       0.84762476      17.47309823
O        1.98931508       3.76395590      17.32222828
O        7.89763372       5.30428118      15.94023648
O        6.29387130       8.63412683      17.15863532
O        5.52115998       3.94272751      15.58862000
O       13.30152951       3.32652408      16.07748453
O       11.52039835       5.32436561      17.27041844
O       13.62234486       8.26484020      15.90277179
O        6.29530091       1.85490043      17.32978571
O        5.40580875      10.92577243      16.07641131
