115
Lattice="13.75323 0.0 0.0 0.0 13.75323 0.0 0.0 0.0 23.89" Properties=species:S:1:pos:R:3 entry_id=11 rank=12 energy=-572.901611328125 parent_id=9 pbc="T T F"
Pd       0.00000000       0.00000000      10.00000000
Pd       2.75064538       0.00000000      10.00000000
Pd       5.50129076       0.00000000      10.00000000
Pd       8.25193614       0.00000000      10.00000000
Pd      11.00258152       0.00000000      10.00000000
Pd       0.00000000       2.75064538      10.00000000
Pd       2.75064538       2.75064538      10.00000000
Pd       5.50129076       2.75064538      10.00000000
Pd       8.25193614       2.75064538      10.00000000
Pd      11.00258152       2.75064538      10.00000000
Pd       0.00000000       5.50129076      10.00000000
Pd       2.75064538       5.50129076      10.00000000
Pd       5.50129076       5.50129076      10.00000000
Pd       8.25193614       5.50129076      10.00000000
Pd      11.00258152       5.50129076      10.00000000
Pd       0.00000000       8.25193614      10.00000000
Pd       2.75064538       8.25193614      10.00000000
Pd       5.50129076       8.25193614      10.00000000
Pd       8.25193614       8.25193614      10.00000000
Pd      11.00258152       8.25193614      10.00000000
Pd       0.00000000      11.00258152      10.00000000
Pd       2.75064538      11.00258152      10.00000000
Pd       5.50129076      11.00258152      10.00000000
Pd       8.25193614      11.00258152      10.00000000
Pd      11.00258152      11.00258152      10.00000000
Pd       1.35392368       1.42368695      11.97583897
Pd       4.10730892       1.39521947      11.92023272
Pd       6.85490010       1.37889856      11.94374354
Pd       9.57512057       1.39592898      11.89594876
Pd      12.38684272       1.37174114      11.92044161
Pd       1.35228865       4.12955715      12.01068189
Pd       4.08180206       4.14622628      11.96270156
Pd       6.82730141       4.11933456      11.96895711
Pd       9.56728621       4.13975942      11.94281254
Pd      12.36578195       4.13265160      11.93417299
Pd       1.37110082       6.89256210      11.94010419
Pd       4.13935064       6.87026939      11.96482277
Pd       6.87097415       6.85831372      11.95140951
Pd       9.64205429       6.82915781      11.94515418
Pd      12.39111484       6.85622887      11.94896407
Pd       1.39572557       9.68363742      11.99684418
Pd       4.11777592       9.66324146      11.95099537
Pd       6.89476706       9.64088005      11.95142944
Pd       9.64982872       9.59779534      11.89439304
Pd      12.42487279       9.60955999      11.94161946
Pd       1.36484958      12.41131599      12.04031253
Pd       4.10966121      12.36672065      11.96382240
Pd       6.86816975      12.39901143      11.97280504
Pd       9.63028672      12.36702810      11.91406436
Pd      12.39853312      12.35270702      12.04380183
Pd      13.72996721       0.21767955      14.00009674
Pd       2.77440312       0.01877759      13.94358765
Pd       5.52703387       0.01270349      13.94677884
Pd       8.29817644      13.75055189      13.92089930
Pd      11.01497659      13.68805559      14.03718986
Pd      13.61889636       2.95123304      14.08677863
Pd       2.64095323       2.80431273      14.05968545
Pd       5.49495085       2.73651904      13.92461081
Pd       8.22843275       2.73226097      13.94139895
Pd      10.94606287       2.66130061      13.86257348
Pd      13.72236316       5.63158000      13.91987850
Pd       2.68877478       5.51462492      13.99193939
Pd       5.47866164       5.54217476      14.03670718
Pd       8.23541008       5.44982705      13.93893191
Pd      10.99159182       5.40352637      14.00502975
Pd       0.05301854       8.40578798      13.93945419
Pd       2.79731236       8.26230249      14.00010511
Pd       5.52471922       8.26654460      13.99527427
Pd       8.24528124       8.20768097      13.88925488
Pd      11.02718870       8.22054742      13.96654276
Pd      13.72918832      11.22307762      14.26297619
Pd       2.82824569      10.98598824      14.11844994
Pd       5.52718564      11.00274024      13.96094260
Pd       8.23581833      10.95497028      13.90719976
Pd      11.06315907      10.91878836      13.98154849
Pd      12.42782069       6.92271987      16.06636941
Pd       8.03795969       9.43105929      16.30616780
Pd       1.98865243      13.04482380      16.45335950
Pd       1.07718147       5.49132373      16.29309890
Pd      12.46734651       9.98076201      16.40894216
Pd       9.51763731       1.43668188      15.88120065
Pd       4.33824521       1.52005042      17.12750671
Pd       4.60841171       9.48151539      16.51840908
Pd       4.60908806      12.68566963      16.27311205
Pd       9.82141718      12.16578596      16.48976106
Pd       1.00105807       2.27480294      16.67381315
Pd       3.67675366       4.04326879      16.41146962
Pd      11.19579964       3.46493650      16.46980225
Pd       1.76568007       8.16943771      16.59695210
Pd       6.85510337       6.96770350      16.29399985
Pd       7.00845115       0.38939314      16.39124827
Pd       9.58016947       7.02700062      15.94479142
Pd       7.31000780       3.53730621      16.49213518
Pd      12.66690639      12.86139770      16.56710479
Pd       4.07914301       6.70767297      15.95681421
O        9.27128073       3.07565375      17.01011668
O        9.54684401      10.45040371      15.52976395
O       11.50428216      11.46024568      17.24866825
O       11.53482962       0.43180682      17.67703305
O       10.19170997       0.19956770      17.48580504
O        3.54536230       8.03821538      17.34749392
O        4.05286020       1.45930228      14.92445094
O        0.22043389       0.47769071      16.02543790
O        8.04151291      12.64636905      15.67725447
O        1.52456374      11.32659552      15.60980249
O        2.44739175       1.00507280      17.34454575
O        1.92021445       3.94270440      17.26921805
O        7.94378248       5.35093022      15.95137137
O        6.41795069       8.68348784      17.12910482
O        5.49811644       4.05326815      15.59578916
O       13.18821871       3.43696828      16.05490002
O       11.06185146       5.52482165      16.14781736
O       13.66158464       8.46001937      16.00768448
O        6.26974853       1.95685888      17.25805072
O        5.63183123      11.04035727      15.97445249
