115
Lattice="13.75323 0.0 0.0 0.0 13.75323 0.0 0.0 0.0 23.89" Properties=species:S:1:pos:R:3 entry_id=29 rank=14 energy=-572.88037109375 parent_id=28 pbc="T T F"
Pd       0.00000000       0.00000000      10.00000000
Pd       2.75064538       0.00000000      10.00000000
Pd       5.50129076       0.00000000      10.00000000
Pd       8.25193614       0.00000000      10.00000000
Pd      11.00258152       0.00000000      10.00000000
Pd       0.00000000       2.75064538      10.00000000
Pd       2.75064538       2.75064538      10.00000000
Pd       5.50129076       2.75064538      10.00000000
Pd       8.25193614       2.75064538      10.00000000
Pd      11.00258152       2.75064538      10.00000000
Pd       0.00000000       5.50129076      10.00000000
Pd       2.75064538       5.50129076      10.00000000
Pd       5.50129076       5.50129076      10.00000000
Pd       8.25193614       5.50129076      10.00000000
Pd      11.00258152       5.50129076      10.00000000
Pd       0.00000000       8.25193614      10.00000000
Pd       2.75064538       8.25193614      10.00000000
Pd       5.50129076       8.25193614      10.00000000
Pd       8.25193614       8.25193614      10.00000000
Pd      11.00258152       8.25193614      10.00000000
Pd       0.00000000      11.00258152      10.00000000
Pd       2.75064538      11.00258152      10.00000000
Pd       5.50129076      11.00258152      10.00000000
Pd       8.25193614      11.00258152      10.00000000
Pd      11.00258152      11.00258152      10.00000000
Pd       1.37682998       1.38972901      11.96154881
Pd       4.11621824       1.40169559      11.93101266
Pd       6.84790269       1.39614645      11.97441424
Pd       9.57512057       1.39592898      11.89594876
Pd      12.38684272       1.37174114      11.92044161
Pd       1.35073789       4.13742215      12.01965517
Pd       4.05837518       4.14422730      11.97078661
Pd       6.81232291       4.10680266      11.96798960
Pd       9.56728621       4.13975942      11.94281254
Pd      12.36578195       4.13265160      11.93417299
Pd       1.37110082       6.89256210      11.94010419
Pd       4.13935064       6.87026939      11.96482277
Pd       6.87097415       6.85831372      11.95140951
Pd       9.64205429       6.82915781      11.94515418
Pd      12.39111484       6.85622887      11.94896407
Pd       1.38748012       9.65480183      11.97477816
Pd       4.11777592       9.66324146      11.95099537
Pd       6.89476706       9.64088005      11.95142944
Pd       9.64982872       9.59779534      11.89439304
Pd      12.42487279       9.60955999      11.94161946
Pd       1.38274563      12.37904725      12.01220298
Pd       4.13126027      12.38091425      11.96737079
Pd       6.86816975      12.39901143      11.97280504
Pd       9.63028672      12.36702810      11.91406436
Pd      12.39891577      12.35567408      12.00699263
Pd      13.74116026       0.02823404      13.95082264
Pd       2.76018052      13.72638215      13.97547302
Pd       5.52530096       0.06528713      13.99585853
Pd       8.29820101       0.03249448      13.94513513
Pd      10.99362712       0.01495703      14.00367979
Pd      13.71250421       2.81387792      13.94997293
Pd       2.65391095       2.78005925      14.07270689
Pd       5.42537425       2.84986299      14.02558297
Pd       8.19404047       2.75039235      13.96461800
Pd      10.92480075       2.77396979      13.91996555
Pd      13.66482583       5.55885730      13.97618254
Pd       2.63898300       5.52243692      14.08434834
Pd       5.45231038       5.56972791      13.89798168
Pd       8.22587369       5.46761723      13.92508469
Pd      10.96323953       5.50551709      14.05184376
Pd       0.05553617       8.28316912      13.88733620
Pd       2.85175745       8.23432420      13.96446788
Pd       5.59570812       8.25666995      13.97045354
Pd       8.30602775       8.16747741      13.95060250
Pd      11.02066152       8.22681475      14.00882231
Pd      13.74168503      11.02368359      14.21001223
Pd       2.84781462      10.94632101      14.01473879
Pd       5.54672330      11.01186095      13.96640301
Pd       8.27120624      10.93918928      13.87433834
Pd      11.06253246      10.98366490      13.94398554
Pd      12.32390354       6.61728116      16.34048386
Pd       7.54111895       9.40430014      16.27501254
Pd       2.11068755      12.57707279      16.52760814
Pd       0.93401802       4.89793372      16.28599004
Pd      12.24402888       9.62850213      16.23801361
Pd       9.55285643       1.59120472      15.95552908
Pd       4.21174107       1.11278618      17.56343605
Pd       4.31036314       9.07755015      16.28691529
Pd       4.72339342      12.58320303      16.32125514
Pd       9.69070476      11.98606015      16.42565731
Pd       0.92267919       1.58174140      16.76843802
Pd       3.22342273       3.42368358      16.76933581
Pd      12.13537920       3.81385588      16.30246898
Pd       1.63286302       7.60332457      16.30460279
Pd       6.75635264       6.79656810      16.32237698
Pd       6.98441295       0.35365016      16.50705946
Pd       9.52123352       4.93620047      16.44217398
Pd       6.83228935       3.31975063      16.65226045
Pd      12.57731536      12.39589057      16.46057466
Pd       4.28021024       5.77380569      16.30943899
O        8.75721377       3.05363424      17.12967504
O        9.16259843      10.24851445      15.61813761
O       11.29688092      11.09530324      17.14532492
O       11.56869422       0.12212144      17.51466378
O       10.21836022       0.05324660      17.28351258
O        3.44964299       7.41972371      16.94121315
O        4.05707395       1.38640139      14.81491862
O        0.32224013      13.57474236      15.98739552
O        7.99140010      12.68022425      15.65077471
O        1.58067795      10.97185229      15.54437316
O        2.37895585       0.45106945      17.65709683
O        1.44845433       3.34209738      17.53043807
O        7.60126543       5.05997731      15.87931875
O        6.07513411       8.43678744      17.12498816
O        5.00968024       3.88247522      15.97204190
O       13.10359701       2.24851793      15.77321052
O       11.25513252       5.26313907      17.26007793
O       13.51306200       8.13019167      15.90035791
O        6.07760909       1.71048293      17.56901863
O        5.34035119      10.75241180      15.97445705
