115
Lattice="13.75323 0.0 0.0 0.0 13.75323 0.0 0.0 0.0 23.89" Properties=species:S:1:pos:R:3 entry_id=13 rank=25 energy=-572.6773681640625 parent_id=12 pbc="T T F"
Pd       0.00000000       0.00000000      10.00000000
Pd       2.75064538       0.00000000      10.00000000
Pd       5.50129076       0.00000000      10.00000000
Pd       8.25193614       0.00000000      10.00000000
Pd      11.00258152       0.00000000      10.00000000
Pd       0.00000000       2.75064538      10.00000000
Pd       2.75064538       2.75064538      10.00000000
Pd       5.50129076       2.75064538      10.00000000
Pd       8.25193614       2.75064538      10.00000000
Pd      11.00258152       2.75064538      10.00000000
Pd       0.00000000       5.50129076      10.00000000
Pd       2.75064538       5.50129076      10.00000000
Pd       5.50129076       5.50129076      10.00000000
Pd       8.25193614       5.50129076      10.00000000
Pd      11.00258152       5.50129076      10.00000000
Pd       0.00000000       8.25193614      10.00000000
Pd       2.75064538       8.25193614      10.00000000
Pd       5.50129076       8.25193614      10.00000000
Pd       8.25193614       8.25193614      10.00000000
Pd      11.00258152       8.25193614      10.00000000
Pd       0.00000000      11.00258152      10.00000000
Pd       2.75064538      11.00258152      10.00000000
Pd       5.50129076      11.00258152      10.00000000
Pd       8.25193614      11.00258152      10.00000000
Pd      11.00258152      11.00258152      10.00000000
Pd       1.35087046       1.42931890      11.98060335
Pd       4.09893432       1.39482884      11.94316737
Pd       6.86912804       1.40097986      11.92594617
Pd       9.57512057       1.39592898      11.89594876
Pd      12.38684272       1.37174114      11.92044161
Pd       1.34651970       4.14369458      11.98791925
Pd       4.08107780       4.13466096      11.96979358
Pd       6.83494742       4.12424295      11.95797210
Pd       9.56728621       4.13975942      11.94281254
Pd      12.36578195       4.13265160      11.93417299
Pd       1.37110082       6.89256210      11.94010419
Pd       4.13935064       6.87026939      11.96482277
Pd       6.87097415       6.85831372      11.95140951
Pd       9.64205429       6.82915781      11.94515418
Pd      12.39111484       6.85622887      11.94896407
Pd       1.39934034       9.68399103      11.99058764
Pd       4.11777592       9.66324146      11.95099537
Pd       6.89476706       9.64088005      11.95142944
Pd       9.64982872       9.59779534      11.89439304
Pd      12.42487279       9.60955999      11.94161946
Pd       1.36604022      12.42166814      12.03747308
Pd       4.10733769      12.36481606      11.98110599
Pd       6.86816975      12.39901143      11.97280504
Pd       9.63028672      12.36702810      11.91406436
Pd      12.40342789      12.34818535      12.04080606
Pd      13.72642554       0.20195712      14.01163226
Pd       2.71141062       0.07055334      13.96451298
Pd       5.62712474       0.03596102      13.83833148
Pd       8.35305527      13.74718811      13.91752307
Pd      11.03885962      13.66667888      14.02534958
Pd      13.64383975       2.92935179      14.06596981
Pd       2.64479598       2.79928039      14.04683273
Pd       5.44141090       2.70810806      13.93963551
Pd       8.21587041       2.72372401      13.95416916
Pd      10.95095115       2.67121872      13.88090590
Pd      13.69430996       5.63890515      13.93623058
Pd       2.67675377       5.49874326      13.98958832
Pd       5.50378331       5.48819908      14.00554058
Pd       8.28185578       5.47040050      13.92808442
Pd      11.01574041       5.41505181      14.01658713
Pd       0.04989316       8.38030227      13.89342356
Pd       2.82783994       8.24931501      14.01825458
Pd       5.56203209       8.21488045      14.01362088
Pd       8.27953280       8.18049327      13.93664414
Pd      11.01555385       8.12791600      14.05544920
Pd      13.72810711      11.18697785      14.24924390
Pd       2.81976874      10.98334900      14.08746257
Pd       5.52539394      10.93709334      14.01280845
Pd       8.23828437      10.94507583      13.88704231
Pd      11.05823646      10.87164381      13.96499182
Pd      12.49409209       6.67646698      16.33802074
Pd       7.78013837       9.51425509      16.26298930
Pd       1.99830750      12.91325434      16.51655883
Pd       1.04085088       5.18360866      16.24434333
Pd      12.43485368       9.79574829      16.30805647
Pd       9.58043992       1.40173660      15.87269522
Pd       4.36691373       1.42685573      17.33043879
Pd       4.42800196       9.30878485      16.53412035
Pd       4.64423636      12.71880155      16.02333540
Pd       9.82866090      12.02821129      16.45186327
Pd       1.08198809       2.10337495      16.72694066
Pd       3.72140497       3.88115224      16.41775928
Pd      11.31340875       3.37549281      16.48591050
Pd       1.69690661       7.89159612      16.54295761
Pd       6.89514579       6.97348038      16.35552133
Pd       7.08584202       0.34762298      16.41580247
Pd       9.79937095       5.65392773      16.48109470
Pd       7.29808160       3.44170027      16.51680208
Pd      12.69144721      12.70128926      16.53957073
Pd       4.13759848       6.56742788      15.94409760
O        9.31391836       3.02013717      17.04547359
O        9.43825357      10.31005770      15.52724791
O       11.51039906      11.28521942      17.17639496
O       11.55876324       0.25392308      17.66107967
O       10.21807203       0.06100658      17.42441792
O        3.45354545       7.79145948      17.35437635
O        4.21456640       0.80155374      15.24905803
O        0.25049250       0.34075688      16.04709931
O        8.07422346      12.59977247      15.65499649
O        1.52406225      11.24490547      15.59860710
O        2.47387275       0.84793429      17.48511291
O        1.99744899       3.76859369      17.33430387
O        7.90512067       5.31772228      15.94668965
O        6.27545979       8.63810458      17.16201562
O        5.52775880       3.94836579      15.59678711
O       13.32209712       3.31340940      16.07184886
O       11.53811710       5.29140843      17.27566366
O       13.60908912       8.25419608      15.91107361
O        6.30746954       1.86754286      17.34314124
O        5.41453835      10.94064836      16.07812519
