115
Lattice="13.75323 0.0 0.0 0.0 13.75323 0.0 0.0 0.0 23.89" Properties=species:S:1:pos:R:3 entry_id=33 rank=3 energy=-573.479736328125 parent_id=31 pbc="T T F"
Pd       0.00000000       0.00000000      10.00000000
Pd       2.75064538       0.00000000      10.00000000
Pd       5.50129076       0.00000000      10.00000000
Pd       8.25193614       0.00000000      10.00000000
Pd      11.00258152       0.00000000      10.00000000
Pd       0.00000000       2.75064538      10.00000000
Pd       2.75064538       2.75064538      10.00000000
Pd       5.50129076       2.75064538      10.00000000
Pd       8.25193614       2.75064538      10.00000000
Pd      11.00258152       2.75064538      10.00000000
Pd       0.00000000       5.50129076      10.00000000
Pd       2.75064538       5.50129076      10.00000000
Pd       5.50129076       5.50129076      10.00000000
Pd       8.25193614       5.50129076      10.00000000
Pd      11.00258152       5.50129076      10.00000000
Pd       0.00000000       8.25193614      10.00000000
Pd       2.75064538       8.25193614      10.00000000
Pd       5.50129076       8.25193614      10.00000000
Pd       8.25193614       8.25193614      10.00000000
Pd      11.00258152       8.25193614      10.00000000
Pd       0.00000000      11.00258152      10.00000000
Pd       2.75064538      11.00258152      10.00000000
Pd       5.50129076      11.00258152      10.00000000
Pd       8.25193614      11.00258152      10.00000000
Pd      11.00258152      11.00258152      10.00000000
Pd       1.36053866       1.37162665      11.99053762
Pd       4.12115390       1.37465285      12.03059282
Pd       6.84489754       1.40034202      11.93495518
Pd       9.57512057       1.39592898      11.89594876
Pd      12.38684272       1.37174114      11.92044161
Pd       1.34013874       4.12685944      12.02548471
Pd       4.10892238       4.11740233      11.99498418
Pd       6.85048099       4.11546104      11.92637394
Pd       9.56728621       4.13975942      11.94281254
Pd      12.36578195       4.13265160      11.93417299
Pd       1.37110082       6.89256210      11.94010419
Pd       4.13935064       6.87026939      11.96482277
Pd       6.87097415       6.85831372      11.95140951
Pd       9.64205429       6.82915781      11.94515418
Pd      12.39111484       6.85622887      11.94896407
Pd       1.39387997       9.63982764      12.00410083
Pd       4.11777592       9.66324146      11.95099537
Pd       6.89476706       9.64088005      11.95142944
Pd       9.64982872       9.59779534      11.89439304
Pd      12.42487279       9.60955999      11.94161946
Pd       1.35816457      12.36984151      12.00473426
Pd       4.13757551      12.39546769      12.02622513
Pd       6.86816975      12.39901143      11.97280504
Pd       9.63028672      12.36702810      11.91406436
Pd      12.35271538      12.34567362      12.00214443
Pd      13.57214466      13.70260514      13.98921926
Pd       2.59786101       0.02722209      14.00238220
Pd       5.78701072       0.01646581      14.01735007
Pd       8.19332568       1.35911824      14.21751732
Pd      10.77294487      13.71467895      13.96965322
Pd      13.68410410       2.69720581      13.99176926
Pd       2.72171113       2.76887645      14.02830657
Pd       5.57556424       2.78370864      14.01807222
Pd       8.17223766       4.08472337      14.23379346
Pd      10.76377071       2.68352974      14.01479822
Pd      13.64631715       5.51243360      13.99450859
Pd       2.75468066       5.52567589      13.97515127
Pd       5.61820641       5.55110229      13.92628150
Pd       8.20770292       6.77186989      14.20826376
Pd      10.78175914       5.47462351      14.03386535
Pd       0.05858899       8.25973596      13.91883857
Pd       2.88805582       8.25367247      13.99908050
Pd       5.68444584       8.25022357      14.00859733
Pd       8.40335902       9.43345703      14.19389061
Pd      10.96030793       8.26076519      13.88908990
Pd      13.64482104      10.93289647      14.08883532
Pd       2.92195908      10.95699467      14.01728809
Pd       5.73206673      10.94124767      13.95658801
Pd       8.31541090      12.23806895      14.30217975
Pd      10.88576625      10.99000085      13.99773526
Pd       9.88068560       7.32624153      16.24054727
Pd       6.92683696       9.69379693      16.52962869
Pd       1.86953354      12.27332518      16.50625067
Pd       1.26755182       4.33571573      15.94343292
Pd      12.32626491       8.71989895      16.24525719
Pd       9.48712631       0.59333742      16.28031383
Pd       4.09810342       0.53216506      17.67832103
Pd       4.23135677       8.56395806      16.43879328
Pd       4.53694335      12.06447481      16.08412436
Pd       9.73262441      10.95257776      16.72783036
Pd       0.78801885       1.29064909      16.79889169
Pd       3.34373778       2.83956263      16.78679810
Pd      12.25382439       4.06566370      16.01923719
Pd       1.62504666       7.00084560      16.12675353
Pd       6.90190863       6.22035542      16.49075773
Pd       6.93225416      13.24032043      16.76754278
Pd       9.72129252       3.80955810      16.62636158
Pd       6.87122403       2.61228168      16.78822313
Pd      12.61975578      11.79040288      16.49091661
Pd       4.38363190       5.17349835      16.25920152
O        8.78172662       2.19055023      17.30195238
O        8.91096515       9.10373911      16.24001908
O       11.54449524      10.27515740      17.13621306
O       11.54269565      13.00195026      17.74535302
O       10.20489061      12.82581172      17.51770903
O        3.44862044       6.80040660      16.79039798
O        4.18688881       0.05640662      15.23829338
O        0.04113720      13.32200095      16.00599142
O        7.84253494      11.54603583      16.26601867
O        1.47470930      10.73394984      15.38421904
O        2.17703530       0.06983085      17.70226191
O        1.54223510       2.96890302      17.48890849
O        7.69367277       4.40761935      16.24632919
O        6.14548196       7.92850290      17.02193068
O        5.13135229       3.26977831      16.02383834
O       13.05488560       2.28049663      15.89638692
O       10.75244184       5.49286781      16.15787785
O       13.47405775       7.20819496      15.66001372
O        6.01974199       0.98543333      17.60950697
O        5.04603050      10.35129818      16.86226255
