115
Lattice="13.75323 0.0 0.0 0.0 13.75323 0.0 0.0 0.0 23.89" Properties=species:S:1:pos:R:3 entry_id=22 rank=27 energy=-571.857666015625 parent_id=21 pbc="T T F"
Pd       0.00000000       0.00000000      10.00000000
Pd       2.75064538       0.00000000      10.00000000
Pd       5.50129076       0.00000000      10.00000000
Pd       8.25193614       0.00000000      10.00000000
Pd      11.00258152       0.00000000      10.00000000
Pd       0.00000000       2.75064538      10.00000000
Pd       2.75064538       2.75064538      10.00000000
Pd       5.50129076       2.75064538      10.00000000
Pd       8.25193614       2.75064538      10.00000000
Pd      11.00258152       2.75064538      10.00000000
Pd       0.00000000       5.50129076      10.00000000
Pd       2.75064538       5.50129076      10.00000000
Pd       5.50129076       5.50129076      10.00000000
Pd       8.25193614       5.50129076      10.00000000
Pd      11.00258152       5.50129076      10.00000000
Pd       0.00000000       8.25193614      10.00000000
Pd       2.75064538       8.25193614      10.00000000
Pd       5.50129076       8.25193614      10.00000000
Pd       8.25193614       8.25193614      10.00000000
Pd      11.00258152       8.25193614      10.00000000
Pd       0.00000000      11.00258152      10.00000000
Pd       2.75064538      11.00258152      10.00000000
Pd       5.50129076      11.00258152      10.00000000
Pd       8.25193614      11.00258152      10.00000000
Pd      11.00258152      11.00258152      10.00000000
Pd       1.34726887       1.40258808      12.00495142
Pd       4.11178053       1.38995072      11.93210565
Pd       6.85967809       1.37505487      11.96855435
Pd       9.57512057       1.39592898      11.89594876
Pd      12.38684272       1.37174114      11.92044161
Pd       1.33796883       4.11413021      12.01130824
Pd       4.07273275       4.14859056      11.96512779
Pd       6.83759924       4.12913717      11.96663926
Pd       9.56728621       4.13975942      11.94281254
Pd      12.36578195       4.13265160      11.93417299
Pd       1.37110082       6.89256210      11.94010419
Pd       4.13935064       6.87026939      11.96482277
Pd       6.87097415       6.85831372      11.95140951
Pd       9.64205429       6.82915781      11.94515418
Pd      12.39111484       6.85622887      11.94896407
Pd       1.36154812       9.64789016      11.99566613
Pd       4.11777592       9.66324146      11.95099537
Pd       6.89476706       9.64088005      11.95142944
Pd       9.64982872       9.59779534      11.89439304
Pd      12.42487279       9.60955999      11.94161946
Pd       1.37808940      12.40184183      11.99660361
Pd       4.14096494      12.39771189      11.96345966
Pd       6.86816975      12.39901143      11.97280504
Pd       9.63028672      12.36702810      11.91406436
Pd      12.40784002      12.33040462      11.99944535
Pd       0.06122825       0.05446620      14.02429015
Pd       2.77834442       0.01167979      13.98315165
Pd       5.59641351      13.75179227      14.05326079
Pd       8.35195249       0.06641598      13.97448508
Pd      11.06296526      13.71685435      13.93743420
Pd      13.54294961       2.76692261      14.10610034
Pd       2.59434376       2.81182375      14.04577381
Pd       5.53456125       2.76757661      13.87899624
Pd       8.24721036       2.73569631      14.01711578
Pd      10.89501779       2.65228463      13.87593223
Pd      13.71373677       5.46548052      13.97066929
Pd       2.66697466       5.56613806      13.97435625
Pd       5.42795795       5.63919102      14.03235427
Pd       8.19748247       5.49192482      13.94510479
Pd      10.94668250       5.34537762      13.96872267
Pd       0.06622470       8.23668464      14.02326391
Pd       2.76243454       8.32445207      13.97463757
Pd       5.50536738       8.30126625      13.96575456
Pd       8.25295441       8.30946043      13.94360174
Pd      11.00773655       8.14150912      13.89610234
Pd       0.01538923      11.03046060      14.16473890
Pd       2.76929474      11.03489714      13.93994717
Pd       5.53253228      10.99735730      13.95641821
Pd       8.27133702      11.05807134      13.93132330
Pd      10.98097587      10.87897237      13.93287591
Pd      12.29512601       6.52681122      16.11037737
Pd       8.59104314       9.63987285      16.39636148
Pd       1.58521524      13.19716304      16.41821023
Pd       1.18008672       6.18500938      16.33677993
Pd      12.14112910       9.24427605      16.06556040
Pd       8.12851497       1.16982170      16.76000831
Pd       4.33620829       1.50351106      16.89564758
Pd       4.85026124       9.54683797      16.58733306
Pd       4.02245246      12.34344130      16.02159249
Pd      10.15410201      12.31540806      16.53254310
Pd       0.87324416       2.52084697      16.68128136
Pd       3.58684606       4.24057623      16.25496522
Pd      10.87013122       3.21130106      16.55830860
Pd       2.15006375       9.94952682      16.37503940
Pd       6.91123502       7.26018381      16.23864287
Pd       7.19628854      12.63416719      16.02663040
Pd       9.59910478       7.03451567      15.95481375
Pd       7.14451791       3.72563862      16.43598233
Pd      12.86317404       0.31902799      16.78669232
Pd       3.94271701       6.95964260      15.97524869
O        8.92349902       3.06708171      17.16517312
O       10.48217786      10.37687417      15.96864969
O       11.82311089      12.87711808      15.65704154
O       11.06913796       1.32057958      17.25904929
O        9.88984159       0.41315803      17.29591193
O        3.28015358       8.48517129      17.10686292
O        4.11835937       1.50177416      14.85257879
O       13.72924938       1.43008814      18.02664063
O        8.44434248      11.59461320      17.23733621
O        0.85435612      11.39932451      16.01744649
O        2.38774928       1.15440400      17.07433351
O        1.80597847       4.41793264      16.95318167
O        7.83362208       5.52933306      15.95900384
O        6.79837618       9.02010845      17.03095675
O        5.40541584       4.15896431      15.50291574
O       12.92391824       3.38024063      15.97762947
O       10.82241489       5.19441234      16.05055933
O       13.74178979       7.92959485      16.11792120
O        6.29395658       1.96601009      16.97062327
O        5.70705928      11.24316764      16.04385409
