115
Lattice="13.75323 0.0 0.0 0.0 13.75323 0.0 0.0 0.0 23.89" Properties=species:S:1:pos:R:3 entry_id=10 rank=13 energy=-572.8988037109375 parent_id=9 pbc="T T F"
Pd       0.00000000       0.00000000      10.00000000
Pd       2.75064538       0.00000000      10.00000000
Pd       5.50129076       0.00000000      10.00000000
Pd       8.25193614       0.00000000      10.00000000
Pd      11.00258152       0.00000000      10.00000000
Pd       0.00000000       2.75064538      10.00000000
Pd       2.75064538       2.75064538      10.00000000
Pd       5.50129076       2.75064538      10.00000000
Pd       8.25193614       2.75064538      10.00000000
Pd      11.00258152       2.75064538      10.00000000
Pd       0.00000000       5.50129076      10.00000000
Pd       2.75064538       5.50129076      10.00000000
Pd       5.50129076       5.50129076      10.00000000
Pd       8.25193614       5.50129076      10.00000000
Pd      11.00258152       5.50129076      10.00000000
Pd       0.00000000       8.25193614      10.00000000
Pd       2.75064538       8.25193614      10.00000000
Pd       5.50129076       8.25193614      10.00000000
Pd       8.25193614       8.25193614      10.00000000
Pd      11.00258152       8.25193614      10.00000000
Pd       0.00000000      11.00258152      10.00000000
Pd       2.75064538      11.00258152      10.00000000
Pd       5.50129076      11.00258152      10.00000000
Pd       8.25193614      11.00258152      10.00000000
Pd      11.00258152      11.00258152      10.00000000
Pd       1.35054496       1.42003561      11.98148544
Pd       4.10270664       1.39332269      11.91941674
Pd       6.85437136       1.37967068      11.94406811
Pd       9.57512057       1.39592898      11.89594876
Pd      12.38684272       1.37174114      11.92044161
Pd       1.34823300       4.12823713      12.01306703
Pd       4.07514462       4.14596280      11.96216431
Pd       6.82601194       4.12003271      11.96695923
Pd       9.56728621       4.13975942      11.94281254
Pd      12.36578195       4.13265160      11.93417299
Pd       1.37110082       6.89256210      11.94010419
Pd       4.13935064       6.87026939      11.96482277
Pd       6.87097415       6.85831372      11.95140951
Pd       9.64205429       6.82915781      11.94515418
Pd      12.39111484       6.85622887      11.94896407
Pd       1.39746997       9.68200640      11.99855156
Pd       4.11777592       9.66324146      11.95099537
Pd       6.89476706       9.64088005      11.95142944
Pd       9.64982872       9.59779534      11.89439304
Pd      12.42487279       9.60955999      11.94161946
Pd       1.36387224      12.41123077      12.04153092
Pd       4.10928994      12.36440360      11.96543539
Pd       6.86816975      12.39901143      11.97280504
Pd       9.63028672      12.36702810      11.91406436
Pd      12.39702642      12.35571463      12.04840037
Pd      13.71999091       0.21510493      14.00938550
Pd       2.76652459       0.01813223      13.95158122
Pd       5.52116521       0.00987177      13.93652408
Pd       8.29334332      13.75170636      13.91853567
Pd      11.00488896      13.68586054      14.04005194
Pd      13.59967655       2.95201003      14.09733910
Pd       2.62341918       2.80761526      14.06028488
Pd       5.48424007       2.73118738      13.91903569
Pd       8.22031742       2.73583550      13.94019199
Pd      10.93468220       2.65630099      13.86997830
Pd      13.71325250       5.63202710      13.91388848
Pd       2.67587299       5.52018398      14.00129678
Pd       5.47075552       5.53179360      14.02670865
Pd       8.23107577       5.45227486      13.94802627
Pd      10.98229284       5.40440714      14.00850454
Pd       0.06319369       8.39862113      13.94361719
Pd       2.80689912       8.26675952      14.00810211
Pd       5.53101855       8.25803028      14.00102877
Pd       8.24716362       8.20641415      13.88606792
Pd      11.03360973       8.22128332      13.95993568
Pd      13.72340952      11.21212419      14.25032576
Pd       2.81845776      10.99197584      14.12378923
Pd       5.52109424      10.99153404      13.96312384
Pd       8.22762457      10.95124012      13.91257051
Pd      11.05883751      10.91788658      13.97943665
Pd      12.42005588       6.92815737      16.06794209
Pd       8.02215808       9.41485031      16.31151068
Pd       1.93953703      13.04674390      16.45466219
Pd       1.02482029       5.45619174      16.29300495
Pd      12.45593331       9.97391673      16.40633118
Pd       9.48105088       1.43502054      15.88787313
Pd       4.30291970       1.50265941      17.11650662
Pd       4.59117870       9.44430058      16.52897293
Pd       4.54622029      12.65687402      16.22674457
Pd       9.78997818      12.14078531      16.49009272
Pd       0.95650712       2.27078343      16.68261477
Pd       3.64494231       4.03169779      16.41311319
Pd      11.14827848       3.47676078      16.47751126
Pd       1.76437769       8.12906312      16.60326058
Pd       6.85768498       6.94705914      16.31115033
Pd       6.97406686       0.35745839      16.37598415
Pd       9.57891746       7.05898238      15.95414446
Pd       7.27134822       3.52048246      16.49448823
Pd      12.61985183      12.85530768      16.58624766
Pd       4.09354864       6.68692356      15.95567510
O        9.23076407       3.06944773      17.02434958
O        9.53456934      10.42672935      15.52591899
O       11.47065989      11.43733294      17.25728723
O       11.46698679       0.41631387      17.69298656
O       10.12657766       0.17785057      17.48428997
O        3.54330187       7.99007826      17.36136395
O        4.03209967       1.46667816      14.92546565
O        0.16296248       0.47773713      16.04078497
O        8.01411734      12.61681270      15.65959868
O        1.49993548      11.32405502      15.60980339
O        2.40727650       1.00360497      17.34287201
O        1.89095498       3.92904919      17.27806056
O        7.91594433       5.32172256      15.95084174
O        6.40947186       8.66119117      17.14357580
O        5.46512586       4.03972522      15.59160184
O       13.14645301       3.44401207      16.06822090
O       11.03984609       5.54101322      16.14812461
O       13.66616808       8.45650904      16.01248367
O        6.23705679       1.92730417      17.24132724
O        5.59399668      11.01568724      15.98082526
