115
Lattice="13.75323 0.0 0.0 0.0 13.75323 0.0 0.0 0.0 23.89" Properties=species:S:1:pos:R:3 entry_id=15 rank=5 energy=-572.9737548828125 parent_id=14 pbc="T T F"
Pd       0.00000000       0.00000000      10.00000000
Pd       2.75064538       0.00000000      10.00000000
Pd       5.50129076       0.00000000      10.00000000
Pd       8.25193614       0.00000000      10.00000000
Pd      11.00258152       0.00000000      10.00000000
Pd       0.00000000       2.75064538      10.00000000
Pd       2.75064538       2.75064538      10.00000000
Pd       5.50129076       2.75064538      10.00000000
Pd       8.25193614       2.75064538      10.00000000
Pd      11.00258152       2.75064538      10.00000000
Pd       0.00000000       5.50129076      10.00000000
Pd       2.75064538       5.50129076      10.00000000
Pd       5.50129076       5.50129076      10.00000000
Pd       8.25193614       5.50129076      10.00000000
Pd      11.00258152       5.50129076      10.00000000
Pd       0.00000000       8.25193614      10.00000000
Pd       2.75064538       8.25193614      10.00000000
Pd       5.50129076       8.25193614      10.00000000
Pd       8.25193614       8.25193614      10.00000000
Pd      11.00258152       8.25193614      10.00000000
Pd       0.00000000      11.00258152      10.00000000
Pd       2.75064538      11.00258152      10.00000000
Pd       5.50129076      11.00258152      10.00000000
Pd       8.25193614      11.00258152      10.00000000
Pd      11.00258152      11.00258152      10.00000000
Pd       1.37449248       1.39659307      11.96261063
Pd       4.11344631       1.41762135      11.97133187
Pd       6.86343210       1.41198289      11.95403990
Pd       9.57512057       1.39592898      11.89594876
Pd      12.38684272       1.37174114      11.92044161
Pd       1.34555403       4.14879886      11.99946543
Pd       4.06196993       4.14721031      11.97719873
Pd       6.82174228       4.11389964      11.95403082
Pd       9.56728621       4.13975942      11.94281254
Pd      12.36578195       4.13265160      11.93417299
Pd       1.37110082       6.89256210      11.94010419
Pd       4.13935064       6.87026939      11.96482277
Pd       6.87097415       6.85831372      11.95140951
Pd       9.64205429       6.82915781      11.94515418
Pd      12.39111484       6.85622887      11.94896407
Pd       1.38933900       9.66402493      11.98156926
Pd       4.11777592       9.66324146      11.95099537
Pd       6.89476706       9.64088005      11.95142944
Pd       9.64982872       9.59779534      11.89439304
Pd      12.42487279       9.60955999      11.94161946
Pd       1.38551301      12.39188009      12.01004785
Pd       4.13098496      12.39035309      11.99851703
Pd       6.86816975      12.39901143      11.97280504
Pd       9.63028672      12.36702810      11.91406436
Pd      12.39688421      12.35125561      12.00493850
Pd      13.72055199       0.02861066      13.95051266
Pd       2.68919313       0.06702235      13.98375576
Pd       5.62057549       0.15504808      13.91085109
Pd       8.34788121       0.03818946      13.93988369
Pd      11.00939686       0.00235499      14.01382405
Pd      13.71931071       2.81523554      13.95516656
Pd       2.65727371       2.80989828      14.03853141
Pd       5.39905077       2.87148594      14.03783320
Pd       8.18076590       2.74597303      13.97715478
Pd      10.92001876       2.75938120      13.91580535
Pd      13.66757518       5.56397118      13.96726821
Pd       2.64567086       5.54128786      14.08720789
Pd       5.46089783       5.57068370      13.88895258
Pd       8.22917476       5.46832341      13.92788972
Pd      10.96659513       5.49195806      14.04516521
Pd       0.05398731       8.28867482      13.89096598
Pd       2.85497700       8.25663114      13.96130052
Pd       5.59635523       8.23541861      13.98332399
Pd       8.30547476       8.16767283      13.94756968
Pd      11.02076235       8.21283601      14.01392325
Pd      13.73169690      11.02058382      14.20083453
Pd       2.84947495      10.97977253      14.03582935
Pd       5.55824495      10.95466341      13.99318771
Pd       8.27034871      10.94026922      13.87787975
Pd      11.05963645      10.96925610      13.94880454
Pd      12.33541747       6.59222637      16.33637690
Pd       7.54320357       9.39980563      16.26882136
Pd       2.03371835      12.49183820      16.59008958
Pd       0.93135062       4.84817105      16.25307755
Pd      12.25061773       9.59733038      16.25686418
Pd       9.56310852       1.58789742      15.97739638
Pd       4.18377002       1.05486045      17.57769993
Pd       4.31801352       9.05322070      16.31307270
Pd       4.64395624      12.56647342      16.00712129
Pd       9.70764196      11.95821100      16.43847311
Pd       0.91246464       1.53785399      16.76650850
Pd       3.22312508       3.36314595      16.70377695
Pd      12.12070621       3.77834494      16.29892451
Pd       1.65202693       7.55952985      16.29024226
Pd       6.76992110       6.77838059      16.32678597
Pd       7.00510310       0.31225874      16.49757480
Pd       9.51574182       4.92174500      16.43606237
Pd       6.83706117       3.27484222      16.65252367
Pd      12.57105918      12.35427519      16.49228609
Pd       4.30455040       5.72127431      16.29933254
O        8.75990246       3.04365286      17.15385022
O        9.17447528      10.23013275      15.61033151
O       11.29568003      11.05166678      17.18265628
O       11.56947273       0.09372745      17.53664057
O       10.22104862       0.02951235      17.30174169
O        3.47329266       7.37021004      16.92001414
O        4.14492371       0.62253521      15.33661631
O        0.29698365      13.53939059      15.98821026
O        8.02962021      12.66198709      15.63129453
O        1.54677650      10.91738591      15.54837366
O        2.33789414       0.39090272      17.68766060
O        1.45853827       3.30115416      17.49678076
O        7.59448967       5.03153574      15.88008773
O        6.09215395       8.41981540      17.13577304
O        5.02291743       3.81337373      15.94368712
O       13.09695749       2.21722432      15.76558078
O       11.25277544       5.24149896      17.24793291
O       13.52975628       8.10547810      15.90511695
O        6.06384072       1.65804549      17.54998091
O        5.32686140      10.75143961      16.06847167
