115
Lattice="13.75323 0.0 0.0 0.0 13.75323 0.0 0.0 0.0 23.89" Properties=species:S:1:pos:R:3 entry_id=26 rank=7 energy=-572.9600219726562 parent_id=15 pbc="T T F"
Pd       0.00000000       0.00000000      10.00000000
Pd       2.75064538       0.00000000      10.00000000
Pd       5.50129076       0.00000000      10.00000000
Pd       8.25193614       0.00000000      10.00000000
Pd      11.00258152       0.00000000      10.00000000
Pd       0.00000000       2.75064538      10.00000000
Pd       2.75064538       2.75064538      10.00000000
Pd       5.50129076       2.75064538      10.00000000
Pd       8.25193614       2.75064538      10.00000000
Pd      11.00258152       2.75064538      10.00000000
Pd       0.00000000       5.50129076      10.00000000
Pd       2.75064538       5.50129076      10.00000000
Pd       5.50129076       5.50129076      10.00000000
Pd       8.25193614       5.50129076      10.00000000
Pd      11.00258152       5.50129076      10.00000000
Pd       0.00000000       8.25193614      10.00000000
Pd       2.75064538       8.25193614      10.00000000
Pd       5.50129076       8.25193614      10.00000000
Pd       8.25193614       8.25193614      10.00000000
Pd      11.00258152       8.25193614      10.00000000
Pd       0.00000000      11.00258152      10.00000000
Pd       2.75064538      11.00258152      10.00000000
Pd       5.50129076      11.00258152      10.00000000
Pd       8.25193614      11.00258152      10.00000000
Pd      11.00258152      11.00258152      10.00000000
Pd       1.37359717       1.38972036      11.95784030
Pd       4.11088711       1.41673058      11.96885712
Pd       6.86026288       1.41160604      11.94711892
Pd       9.57512057       1.39592898      11.89594876
Pd      12.38684272       1.37174114      11.92044161
Pd       1.34625834       4.14796961      11.99280164
Pd       4.06037805       4.14583969      11.97286706
Pd       6.81964698       4.11686946      11.95288452
Pd       9.56728621       4.13975942      11.94281254
Pd      12.36578195       4.13265160      11.93417299
Pd       1.37110082       6.89256210      11.94010419
Pd       4.13935064       6.87026939      11.96482277
Pd       6.87097415       6.85831372      11.95140951
Pd       9.64205429       6.82915781      11.94515418
Pd      12.39111484       6.85622887      11.94896407
Pd       1.39269316       9.66207149      11.98381219
Pd       4.11777592       9.66324146      11.95099537
Pd       6.89476706       9.64088005      11.95142944
Pd       9.64982872       9.59779534      11.89439304
Pd      12.42487279       9.60955999      11.94161946
Pd       1.38371588      12.38557306      12.01281823
Pd       4.12923715      12.38982579      11.99822043
Pd       6.86816975      12.39901143      11.97280504
Pd       9.63028672      12.36702810      11.91406436
Pd      12.39565689      12.35192690      12.00920620
Pd      13.72130915       0.02276648      13.95582890
Pd       2.68925362       0.05779125      13.97981872
Pd       5.61725523       0.16334584      13.90687591
Pd       8.34392642       0.03562435      13.93202112
Pd      11.00877842       0.01126778      14.01345832
Pd      13.72233167       2.78950493      13.93268120
Pd       2.65939410       2.80114093      14.03062415
Pd       5.39967728       2.87487365      14.03419431
Pd       8.17838242       2.74593720      13.96180268
Pd      10.92659322       2.77484380      13.92822141
Pd      13.67561132       5.53827836      13.98750042
Pd       2.64346691       5.53164949      14.08774209
Pd       5.45299078       5.57198883      13.88979256
Pd       8.23010107       5.46735778      13.92691212
Pd      10.97222235       5.51064509      14.04182912
Pd       0.05579511       8.27283727      13.88558728
Pd       2.85536784       8.24842248      13.96787087
Pd       5.59161799       8.23813897      13.98569576
Pd       8.30261171       8.17004263      13.94330197
Pd      11.02381517       8.22734719      14.02433988
Pd      13.73163120      11.02330448      14.20142023
Pd       2.85555865      10.97301830      14.04700812
Pd       5.56438915      10.96212446      13.98960254
Pd       8.27247013      10.94130554      13.88126059
Pd      11.05826273      10.97554665      13.95331145
Pd      12.36285774       6.70547295      16.32864631
Pd       7.59162639       9.41125105      16.27012313
Pd       2.01889174      12.54112353      16.58943238
Pd       0.97519357       4.99812500      16.34080120
Pd      12.28821372       9.66893260      16.28381084
Pd       9.54150553       1.58927548      15.95364118
Pd       4.18567276       1.09674838      17.55244935
Pd       4.34189173       9.08979986      16.33035277
Pd       4.63265670      12.59118253      15.99936619
Pd       9.71375224      11.98048664      16.43759845
Pd       0.92896145       1.61743181      16.77073053
Pd       3.22790324       3.41913013      16.68576863
Pd      12.17578147       3.91605915      16.28258960
Pd       1.68678663       7.66933830      16.34037592
Pd       6.78426771       6.80546584      16.32576601
Pd       7.00302314       0.32088705      16.47813454
Pd       9.53497010       4.95929250      16.43696224
Pd       6.84498604       3.30276112      16.62723258
Pd      12.57783398      12.42389590      16.50303340
Pd       4.30567577       5.77994868      16.30432666
O        8.76947427       3.06532221      17.11785015
O        9.22448296      10.24084894      15.60366006
O       11.31312714      11.11201999      17.19817249
O       11.54797474       0.14824876      17.53727544
O       10.19923394       0.05916021      17.29828107
O        3.49660603       7.42378852      16.97354520
O        4.13570315       0.65431913      15.33308071
O        0.29600104      13.61680664      15.99547430
O        8.02507788      12.65518521      15.62514619
O        1.54154801      10.95790799      15.55197158
O        2.33814775       0.44255295      17.67920277
O        1.47560897       3.38042174      17.50530808
O        7.60956441       5.05773899      15.88166623
O        6.12576468       8.45403117      17.13365602
O        5.02758938       3.86504893      15.92334176
O       13.12930364       2.33192176      15.78240714
O       11.26857165       5.35801366      17.22798335
O       13.57916700       8.20376872      15.90778148
O        6.07106710       1.68416668      17.51572125
O        5.33512481      10.78402665      16.05629610
