115
Lattice="13.75323 0.0 0.0 0.0 13.75323 0.0 0.0 0.0 23.89" Properties=species:S:1:pos:R:3 entry_id=16 rank=6 energy=-572.966064453125 parent_id=15 pbc="T T F"
Pd       0.00000000       0.00000000      10.00000000
Pd       2.75064538       0.00000000      10.00000000
Pd       5.50129076       0.00000000      10.00000000
Pd       8.25193614       0.00000000      10.00000000
Pd      11.00258152       0.00000000      10.00000000
Pd       0.00000000       2.75064538      10.00000000
Pd       2.75064538       2.75064538      10.00000000
Pd       5.50129076       2.75064538      10.00000000
Pd       8.25193614       2.75064538      10.00000000
Pd      11.00258152       2.75064538      10.00000000
Pd       0.00000000       5.50129076      10.00000000
Pd       2.75064538       5.50129076      10.00000000
Pd       5.50129076       5.50129076      10.00000000
Pd       8.25193614       5.50129076      10.00000000
Pd      11.00258152       5.50129076      10.00000000
Pd       0.00000000       8.25193614      10.00000000
Pd       2.75064538       8.25193614      10.00000000
Pd       5.50129076       8.25193614      10.00000000
Pd       8.25193614       8.25193614      10.00000000
Pd      11.00258152       8.25193614      10.00000000
Pd       0.00000000      11.00258152      10.00000000
Pd       2.75064538      11.00258152      10.00000000
Pd       5.50129076      11.00258152      10.00000000
Pd       8.25193614      11.00258152      10.00000000
Pd      11.00258152      11.00258152      10.00000000
Pd       1.37644866       1.39300192      11.96024689
Pd       4.11263884       1.41355440      11.97385838
Pd       6.86198422       1.41418830      11.95201713
Pd       9.57512057       1.39592898      11.89594876
Pd      12.38684272       1.37174114      11.92044161
Pd       1.34826152       4.14996031      11.99649175
Pd       4.06213897       4.14244021      11.97605181
Pd       6.82536340       4.11625443      11.95359992
Pd       9.56728621       4.13975942      11.94281254
Pd      12.36578195       4.13265160      11.93417299
Pd       1.37110082       6.89256210      11.94010419
Pd       4.13935064       6.87026939      11.96482277
Pd       6.87097415       6.85831372      11.95140951
Pd       9.64205429       6.82915781      11.94515418
Pd      12.39111484       6.85622887      11.94896407
Pd       1.39125702       9.66469395      11.98279889
Pd       4.11777592       9.66324146      11.95099537
Pd       6.89476706       9.64088005      11.95142944
Pd       9.64982872       9.59779534      11.89439304
Pd      12.42487279       9.60955999      11.94161946
Pd       1.38314818      12.39055942      12.01272589
Pd       4.12831654      12.39108776      11.99920905
Pd       6.86816975      12.39901143      11.97280504
Pd       9.63028672      12.36702810      11.91406436
Pd      12.39595297      12.34870263      12.01209723
Pd      13.72021970       0.03343423      13.95476653
Pd       2.69069262       0.06351221      13.99025914
Pd       5.62384854       0.14928170      13.90808521
Pd       8.34951740       0.04274854      13.93104732
Pd      11.01085126      13.74955639      14.01495243
Pd      13.73725709       2.81251808      13.94118484
Pd       2.67600108       2.80634386      14.03630281
Pd       5.41939368       2.86526967      14.03490021
Pd       8.19739992       2.74717344      13.97197207
Pd      10.93810387       2.76183359      13.92414794
Pd      13.68322367       5.55952773      13.97779251
Pd       2.65917087       5.53883779      14.08698662
Pd       5.46639032       5.56170903      13.88390713
Pd       8.24185087       5.47020847      13.93104058
Pd      10.98100666       5.49452291      14.04846617
Pd       0.05846356       8.28706785      13.89092932
Pd       2.85708313       8.25789391      13.96752359
Pd       5.59329188       8.22595034      13.98370291
Pd       8.30490738       8.17316257      13.93437947
Pd      11.02923179       8.21039875      14.01691963
Pd      13.73368252      11.02748503      14.20421863
Pd       2.85146889      10.98141595      14.03993055
Pd       5.55805046      10.94796591      13.99207970
Pd       8.26481156      10.94886301      13.88411108
Pd      11.06034908      10.95810760      13.95613631
Pd      12.38447809       6.65409712      16.33386718
Pd       7.63956435       9.40743189      16.26208574
Pd       2.04019634      12.51921101      16.58827123
Pd       0.97732025       4.92380216      16.29408074
Pd      12.31403498       9.63334019      16.28062719
Pd       9.58165771       1.57655470      15.96263850
Pd       4.21356913       1.07235284      17.56141927
Pd       4.37546459       9.06464808      16.33562923
Pd       4.65495562      12.57364139      16.00762169
Pd       9.75318225      11.97632935      16.44340018
Pd       0.94393986       1.58479795      16.76747495
Pd       3.25314585       3.39014241      16.69716233
Pd      12.17100783       3.85642693      16.28907314
Pd       1.71433897       7.61080736      16.32991494
Pd       6.81995954       6.79230830      16.31548677
Pd       7.03345999       0.30494334      16.47962550
Pd       9.55089649       4.93694381      16.44682120
Pd       6.87261422       3.27612694      16.63952034
Pd      12.60546085      12.39505675      16.51320940
Pd       4.34229553       5.74523778      16.30293518
O        8.79680643       3.04034027      17.13533764
O        9.26707135      10.25072348      15.58391124
O       11.34376037      11.08085932      17.20372220
O       11.59039991       0.12739137      17.55448684
O       10.24201542       0.04897963      17.31736260
O        3.53046088       7.39070931      16.95995491
O        4.15408200       0.63343018      15.33849242
O        0.31485171      13.58873942      15.99155483
O        8.06412947      12.64862080      15.62118740
O        1.54787017      10.94077478      15.55166387
O        2.36347291       0.41984971      17.67906633
O        1.49317439       3.34484714      17.50159030
O        7.63148605       5.03314116      15.88493202
O        6.17494288       8.44551861      17.12344314
O        5.05507759       3.82827597      15.93549022
O       13.13432714       2.28216555      15.77292591
O       11.28824506       5.31126546      17.23859569
O       13.60015635       8.15437508      15.91347168
O        6.09951167       1.65744908      17.53010562
O        5.35269710      10.76656969      16.06153344
