115
Lattice="13.75323 0.0 0.0 0.0 13.75323 0.0 0.0 0.0 23.89" Properties=species:S:1:pos:R:3 entry_id=5 rank=32 energy=-571.607177734375 parent_id=4 pbc="T T F"
Pd       0.00000000       0.00000000      10.00000000
Pd       2.75064538       0.00000000      10.00000000
Pd       5.50129076       0.00000000      10.00000000
Pd       8.25193614       0.00000000      10.00000000
Pd      11.00258152       0.00000000      10.00000000
Pd       0.00000000       2.75064538      10.00000000
Pd       2.75064538       2.75064538      10.00000000
Pd       5.50129076       2.75064538      10.00000000
Pd       8.25193614       2.75064538      10.00000000
Pd      11.00258152       2.75064538      10.00000000
Pd       0.00000000       5.50129076      10.00000000
Pd       2.75064538       5.50129076      10.00000000
Pd       5.50129076       5.50129076      10.00000000
Pd       8.25193614       5.50129076      10.00000000
Pd      11.00258152       5.50129076      10.00000000
Pd       0.00000000       8.25193614      10.00000000
Pd       2.75064538       8.25193614      10.00000000
Pd       5.50129076       8.25193614      10.00000000
Pd       8.25193614       8.25193614      10.00000000
Pd      11.00258152       8.25193614      10.00000000
Pd       0.00000000      11.00258152      10.00000000
Pd       2.75064538      11.00258152      10.00000000
Pd       5.50129076      11.00258152      10.00000000
Pd       8.25193614      11.00258152      10.00000000
Pd      11.00258152      11.00258152      10.00000000
Pd       1.30509347       1.39241017      12.04820607
Pd       4.05876575       1.41461577      11.91141758
Pd       6.82622158       1.39704838      11.90878805
Pd       9.57512057       1.39592898      11.89594876
Pd      12.38684272       1.37174114      11.92044161
Pd       1.34376337       4.11430935      12.00866231
Pd       4.07422844       4.16515750      11.95554767
Pd       6.82870883       4.15990257      11.96722832
Pd       9.56728621       4.13975942      11.94281254
Pd      12.36578195       4.13265160      11.93417299
Pd       1.37110082       6.89256210      11.94010419
Pd       4.13935064       6.87026939      11.96482277
Pd       6.87097415       6.85831372      11.95140951
Pd       9.64205429       6.82915781      11.94515418
Pd      12.39111484       6.85622887      11.94896407
Pd       1.37172763       9.64211239      12.01240177
Pd       4.11777592       9.66324146      11.95099537
Pd       6.89476706       9.64088005      11.95142944
Pd       9.64982872       9.59779534      11.89439304
Pd      12.42487279       9.60955999      11.94161946
Pd       1.34633855      12.39490094      12.00933120
Pd       4.10332860      12.40081810      11.92090210
Pd       6.86816975      12.39901143      11.97280504
Pd       9.63028672      12.36702810      11.91406436
Pd      12.39318725      12.34697687      12.00210611
Pd      13.74174563      13.67309996      14.07552554
Pd       2.70559026       0.04452778      13.98240449
Pd       5.45776287       0.04732843      13.88454472
Pd       8.20633105      13.74405454      13.84478629
Pd      10.94580232      13.73574162      13.99917489
Pd      13.55897475       2.69851937      14.12698870
Pd       2.58772145       2.86195240      14.07421859
Pd       5.48249459       2.78447935      13.85985154
Pd       8.19653729       2.74339499      13.87769931
Pd      10.89491213       2.69191428      13.89018118
Pd      13.74473475       5.41434252      13.99221319
Pd       2.75186612       5.59331317      13.95837894
Pd       5.50125880       5.61965093      14.08856220
Pd       8.24187265       5.49988400      14.00486780
Pd      10.99544240       5.40393050      13.95448419
Pd       0.06728857       8.14584970      14.00592204
Pd       2.76610630       8.33675029      14.04350005
Pd       5.56404064       8.32537034      13.96491290
Pd       8.32476082       8.30063662      13.96186138
Pd      11.07644342       8.20116524      13.92823443
Pd       0.09069970      10.90276570      14.26570229
Pd       2.80002526      11.07507285      13.92133698
Pd       5.51516571      11.08228759      13.90022140
Pd       8.29509928      11.05008569      14.05581946
Pd      11.02521365      10.93053847      13.89436228
Pd      12.44118878       6.42046071      16.30172327
Pd       9.08001170       9.66580069      16.40532385
Pd       1.73362631      13.16347040      16.46714994
Pd       1.42882181       6.56913504      16.05787330
Pd      12.44288743       9.15696172      16.17730667
Pd       9.19634712       1.28242062      15.81704974
Pd       4.38884755       1.40397386      16.90648857
Pd       5.63189731      10.11338636      16.38765329
Pd       4.20899626      12.36685697      15.96366799
Pd      10.61021322      12.34246038      16.64741935
Pd       1.08954988       2.70851788      16.67925937
Pd       3.69365582       4.36442650      16.24167162
Pd      11.11768554       3.21969328      16.61989578
Pd       2.67265741      10.05705973      16.39830071
Pd       7.13719291       7.16888000      16.25371977
Pd       6.76609086      13.49813689      16.22767299
Pd       9.77423148       7.03127736      15.95858220
Pd       7.26856094       3.42656169      16.41767617
Pd      13.15179340       0.51061442      16.87049709
Pd       4.21716920       7.13942274      16.01187864
O        9.12298428       2.88178031      17.03156222
O       10.94017770      10.44910441      15.91538071
O       12.17778423      13.11635698      15.61422939
O       11.36381633       1.36294038      17.56456929
O       10.23417068       0.46474127      17.40957401
O        4.17459813       8.91939543      16.98449227
O        4.06185166       1.52724796      14.85154430
O        0.21491567       1.67754137      18.09525198
O        9.15579439      11.39001576      17.45894626
O        1.15088097      11.30130253      16.05428131
O        2.45499135       1.16941697      17.08089543
O        1.91601544       4.72621530      16.85011079
O        7.85964108       5.32053976      15.99523863
O        7.27714528       8.99951561      16.94382271
O        5.51448763       4.03514159      15.55655118
O       13.11601094       3.52900917      15.98061486
O       10.94674141       5.15340210      16.01065358
O       13.73497349       7.80366437      16.81200618
O        6.35888057       1.57944592      16.91886611
O        6.87492769      11.55670942      15.63276927
