115
Lattice="13.75323 0.0 0.0 0.0 13.75323 0.0 0.0 0.0 23.89" Properties=species:S:1:pos:R:3 entry_id=31 rank=2 energy=-573.482421875 parent_id=30 pbc="T T F"
Pd       0.00000000       0.00000000      10.00000000
Pd       2.75064538       0.00000000      10.00000000
Pd       5.50129076       0.00000000      10.00000000
Pd       8.25193614       0.00000000      10.00000000
Pd      11.00258152       0.00000000      10.00000000
Pd       0.00000000       2.75064538      10.00000000
Pd       2.75064538       2.75064538      10.00000000
Pd       5.50129076       2.75064538      10.00000000
Pd       8.25193614       2.75064538      10.00000000
Pd      11.00258152       2.75064538      10.00000000
Pd       0.00000000       5.50129076      10.00000000
Pd       2.75064538       5.50129076      10.00000000
Pd       5.50129076       5.50129076      10.00000000
Pd       8.25193614       5.50129076      10.00000000
Pd      11.00258152       5.50129076      10.00000000
Pd       0.00000000       8.25193614      10.00000000
Pd       2.75064538       8.25193614      10.00000000
Pd       5.50129076       8.25193614      10.00000000
Pd       8.25193614       8.25193614      10.00000000
Pd      11.00258152       8.25193614      10.00000000
Pd       0.00000000      11.00258152      10.00000000
Pd       2.75064538      11.00258152      10.00000000
Pd       5.50129076      11.00258152      10.00000000
Pd       8.25193614      11.00258152      10.00000000
Pd      11.00258152      11.00258152      10.00000000
Pd       1.35948878       1.36975426      11.99407714
Pd       4.11873923       1.37893315      12.03200208
Pd       6.84607214       1.40597947      11.93969518
Pd       9.57512057       1.39592898      11.89594876
Pd      12.38684272       1.37174114      11.92044161
Pd       1.34292134       4.12337726      12.02704777
Pd       4.10847345       4.11720464      11.99510748
Pd       6.85448305       4.11685576      11.92637162
Pd       9.56728621       4.13975942      11.94281254
Pd      12.36578195       4.13265160      11.93417299
Pd       1.37110082       6.89256210      11.94010419
Pd       4.13935064       6.87026939      11.96482277
Pd       6.87097415       6.85831372      11.95140951
Pd       9.64205429       6.82915781      11.94515418
Pd      12.39111484       6.85622887      11.94896407
Pd       1.39384763       9.64173455      12.00840712
Pd       4.11777592       9.66324146      11.95099537
Pd       6.89476706       9.64088005      11.95142944
Pd       9.64982872       9.59779534      11.89439304
Pd      12.42487279       9.60955999      11.94161946
Pd       1.35525424      12.37205406      12.00937940
Pd       4.13303214      12.39573989      12.02525704
Pd       6.86816975      12.39901143      11.97280504
Pd       9.63028672      12.36702810      11.91406436
Pd      12.35267909      12.34594518      12.00487837
Pd      13.57452223      13.70457554      13.99637089
Pd       2.60324446       0.03024919      14.00642973
Pd       5.77403843       0.01091727      14.00471594
Pd       8.19961274       1.29168846      14.22300800
Pd      10.77335451      13.69388147      13.98716008
Pd      13.68087357       2.69944074      13.99162626
Pd       2.71710814       2.77287766      14.03921172
Pd       5.57295544       2.78122012      14.02640747
Pd       8.17640302       4.03230201      14.24146748
Pd      10.75348789       2.66439347      14.03263364
Pd      13.64615525       5.51418300      13.98946630
Pd       2.75515250       5.52859967      13.98146439
Pd       5.62012987       5.53802345      13.92028870
Pd       8.21315525       6.72479973      14.20502360
Pd      10.78418369       5.46189126      14.03244560
Pd       0.06479937       8.26036897      13.91978841
Pd       2.89860474       8.25636797      14.00235381
Pd       5.69360674       8.23875780      14.01643951
Pd       8.40170528       9.39381363      14.19411594
Pd      10.96645353       8.24750015      13.88892608
Pd      13.64787248      10.93543158      14.09906766
Pd       2.91912401      10.95929601      14.02727009
Pd       5.71748600      10.93302991      13.95846757
Pd       8.30846540      12.18850787      14.27632833
Pd      10.89361649      10.97071674      13.99993525
Pd       9.87933957       7.33702296      16.24253856
Pd       6.94625036       9.71992081      16.54332533
Pd       1.88074906      12.29845289      16.50925778
Pd       1.25737455       4.35843822      15.95024390
Pd      12.32894900       8.73658758      16.24459863
Pd       9.53890107       0.65724241      16.30994242
Pd       4.10834888       0.56716478      17.65750528
Pd       4.24715211       8.60601872      16.45150221
Pd       4.55458823      12.08480142      16.09452897
Pd       9.74952053      10.97095282      16.72367909
Pd       0.79458493       1.31492928      16.79935707
Pd       3.34860229       2.88844055      16.79779246
Pd      12.25346738       4.07467222      16.02196004
Pd       1.62168332       7.02611058      16.12777622
Pd       6.91267791       6.25212475      16.49999150
Pd       6.96047356      13.27632231      16.73061456
Pd       9.72337639       3.83517361      16.64339457
Pd       6.87266618       2.64830709      16.78974129
Pd      12.62973355      11.80489564      16.50231559
Pd       4.38968256       5.22330522      16.26603238
O        8.77751396       2.22724834      17.32786280
O        8.92037331       9.11736896      16.24184980
O       11.55411913      10.28992456      17.14755335
O       11.55568125      13.00865407      17.76609819
O       10.22054132      12.84679117      17.51665538
O        3.44688869       6.84828483      16.79388989
O        4.19086004       0.07591617      15.24720538
O        0.04875650      13.33863771      16.01589014
O        7.86551576      11.56811965      16.25367272
O        1.47511239      10.75371955      15.39995058
O        2.18976163       0.10310550      17.69630607
O        1.54258811       2.99618642      17.49377833
O        7.70004226       4.43635100      16.24889439
O        6.15928572       7.95817366      17.03970607
O        5.13375340       3.31457623      16.02802733
O       13.05434831       2.29039735      15.89805625
O       10.75491669       5.50859585      16.15708408
O       13.46736894       7.21841587      15.66218856
O        6.03113346       1.00946600      17.58352053
O        5.07267317      10.38497183      16.88931814
