115
Lattice="13.75323 0.0 0.0 0.0 13.75323 0.0 0.0 0.0 23.89" Properties=species:S:1:pos:R:3 entry_id=17 rank=19 energy=-572.8450927734375 parent_id=16 pbc="T T F"
Pd       0.00000000       0.00000000      10.00000000
Pd       2.75064538       0.00000000      10.00000000
Pd       5.50129076       0.00000000      10.00000000
Pd       8.25193614       0.00000000      10.00000000
Pd      11.00258152       0.00000000      10.00000000
Pd       0.00000000       2.75064538      10.00000000
Pd       2.75064538       2.75064538      10.00000000
Pd       5.50129076       2.75064538      10.00000000
Pd       8.25193614       2.75064538      10.00000000
Pd      11.00258152       2.75064538      10.00000000
Pd       0.00000000       5.50129076      10.00000000
Pd       2.75064538       5.50129076      10.00000000
Pd       5.50129076       5.50129076      10.00000000
Pd       8.25193614       5.50129076      10.00000000
Pd      11.00258152       5.50129076      10.00000000
Pd       0.00000000       8.25193614      10.00000000
Pd       2.75064538       8.25193614      10.00000000
Pd       5.50129076       8.25193614      10.00000000
Pd       8.25193614       8.25193614      10.00000000
Pd      11.00258152       8.25193614      10.00000000
Pd       0.00000000      11.00258152      10.00000000
Pd       2.75064538      11.00258152      10.00000000
Pd       5.50129076      11.00258152      10.00000000
Pd       8.25193614      11.00258152      10.00000000
Pd      11.00258152      11.00258152      10.00000000
Pd       1.37265510       1.39174641      11.94932230
Pd       4.10808345       1.40304323      11.93888370
Pd       6.87777246       1.42525917      11.92763466
Pd       9.57512057       1.39592898      11.89594876
Pd      12.38684272       1.37174114      11.92044161
Pd       1.35170833       4.14868667      11.99506455
Pd       4.06222784       4.13308543      11.97252363
Pd       6.81728995       4.12291941      11.96086568
Pd       9.56728621       4.13975942      11.94281254
Pd      12.36578195       4.13265160      11.93417299
Pd       1.37110082       6.89256210      11.94010419
Pd       4.13935064       6.87026939      11.96482277
Pd       6.87097415       6.85831372      11.95140951
Pd       9.64205429       6.82915781      11.94515418
Pd      12.39111484       6.85622887      11.94896407
Pd       1.39603234       9.65529722      11.99088302
Pd       4.11777592       9.66324146      11.95099537
Pd       6.89476706       9.64088005      11.95142944
Pd       9.64982872       9.59779534      11.89439304
Pd      12.42487279       9.60955999      11.94161946
Pd       1.38171915      12.37403431      12.01778395
Pd       4.11757455      12.36293368      11.97830700
Pd       6.86816975      12.39901143      11.97280504
Pd       9.63028672      12.36702810      11.91406436
Pd      12.39402680      12.34580436      12.01944799
Pd      13.73555445       0.05407823      13.94170337
Pd       2.72557056       0.00427074      13.94776498
Pd       5.63065850       0.10933539      13.81189929
Pd       8.35943974       0.08022210      13.95928418
Pd      11.01995405       0.00880531      14.01701146
Pd      13.71847822       2.81161233      13.90997990
Pd       2.66829383       2.75032162      14.01998255
Pd       5.41500623       2.79357869      14.02377205
Pd       8.16898060       2.79346270      13.97172048
Pd      10.92020993       2.76314252      13.93167785
Pd      13.65478553       5.55427295      13.98897432
Pd       2.60709456       5.49077059      14.08607028
Pd       5.43269586       5.53161800      13.90363703
Pd       8.23864353       5.51104947      13.91036594
Pd      10.96592899       5.50572909      14.04415602
Pd       0.05245991       8.28740051      13.89613920
Pd       2.84518939       8.20025668      13.97794774
Pd       5.56720986       8.24866888      14.00559228
Pd       8.28897074       8.22241532      13.97772616
Pd      11.01273902       8.22103110      14.01819529
Pd      13.72078000      11.07084868      14.21017397
Pd       2.83159752      10.92422758      14.09733071
Pd       5.54118731      11.00744529      14.01415017
Pd       8.25328755      11.00600099      13.84172488
Pd      11.03089278      10.96483837      13.97394192
Pd      12.27757967       6.87397314      16.35880530
Pd       7.60052568       9.68259603      16.23211377
Pd       1.99630734      12.74712467      16.54039929
Pd       0.85153346       5.29636857      16.43030329
Pd      12.21881131       9.85060397      16.31404468
Pd       9.48949021       1.82868652      16.05406439
Pd       4.12573491       1.43696111      17.42373561
Pd       4.31632731       9.42403330      16.31093137
Pd       4.60473764      12.90921779      15.98641542
Pd       9.68256243      12.22903862      16.47586309
Pd       0.87674176       1.83470837      16.68745877
Pd       3.19719413       3.79033291      16.53297696
Pd      12.09096585       4.08132981      16.31420700
Pd       1.60556070       7.96023273      16.38485907
Pd       6.76902104       7.12082607      16.36138841
Pd       6.96377726       0.64005948      16.46822824
Pd       9.48199359       5.28223447      16.49890189
Pd       6.79549816       3.64874113      16.56731001
Pd      12.53375784      12.61006650      16.51466493
Pd       4.24599577       6.20732573      16.22748581
O        8.70280060       3.36377411      17.11663190
O        9.25044305      10.51321271      15.58010548
O       11.26990575      11.31604833      17.22623754
O       11.54361743       0.36563545      17.54649226
O       10.18790412       0.28267924      17.36311147
O        3.42576978       7.79972145      17.00841637
O        4.12341669       1.00804104      15.19649793
O        0.24990054       0.04116009      15.98490817
O        7.97020662      12.91363422      15.73327823
O        1.51130451      11.09867959      15.59381588
O        2.31491481       0.69768901      17.56085478
O        1.46216029       3.60720519      17.38233849
O        7.58836712       5.38646340      15.87572600
O        6.10836560       8.78489132      17.12357978
O        5.00660941       4.26587608      15.79166675
O       13.02895004       2.51154537      15.75256363
O       11.22665643       5.52346360      17.30484624
O       13.47924536       8.37427465      15.90904429
O        5.99855428       2.04038132      17.42859467
O        5.31897194      11.11016591      16.06950760
