115
Lattice="13.75323 0.0 0.0 0.0 13.75323 0.0 0.0 0.0 23.89" Properties=species:S:1:pos:R:3 entry_id=23 rank=20 energy=-572.8243408203125 parent_id=16 pbc="T T F"
Pd       0.00000000       0.00000000      10.00000000
Pd       2.75064538       0.00000000      10.00000000
Pd       5.50129076       0.00000000      10.00000000
Pd       8.25193614       0.00000000      10.00000000
Pd      11.00258152       0.00000000      10.00000000
Pd       0.00000000       2.75064538      10.00000000
Pd       2.75064538       2.75064538      10.00000000
Pd       5.50129076       2.75064538      10.00000000
Pd       8.25193614       2.75064538      10.00000000
Pd      11.00258152       2.75064538      10.00000000
Pd       0.00000000       5.50129076      10.00000000
Pd       2.75064538       5.50129076      10.00000000
Pd       5.50129076       5.50129076      10.00000000
Pd       8.25193614       5.50129076      10.00000000
Pd      11.00258152       5.50129076      10.00000000
Pd       0.00000000       8.25193614      10.00000000
Pd       2.75064538       8.25193614      10.00000000
Pd       5.50129076       8.25193614      10.00000000
Pd       8.25193614       8.25193614      10.00000000
Pd      11.00258152       8.25193614      10.00000000
Pd       0.00000000      11.00258152      10.00000000
Pd       2.75064538      11.00258152      10.00000000
Pd       5.50129076      11.00258152      10.00000000
Pd       8.25193614      11.00258152      10.00000000
Pd      11.00258152      11.00258152      10.00000000
Pd       1.38901696       1.40232434      11.95104996
Pd       4.12487822       1.39023441      11.91865535
Pd       6.88117632       1.38836752      11.94983118
Pd       9.57512057       1.39592898      11.89594876
Pd      12.38684272       1.37174114      11.92044161
Pd       1.36053195       4.15157080      12.01941405
Pd       4.06920507       4.13955044      11.95713080
Pd       6.83205419       4.10776315      11.97215780
Pd       9.56728621       4.13975942      11.94281254
Pd      12.36578195       4.13265160      11.93417299
Pd       1.37110082       6.89256210      11.94010419
Pd       4.13935064       6.87026939      11.96482277
Pd       6.87097415       6.85831372      11.95140951
Pd       9.64205429       6.82915781      11.94515418
Pd      12.39111484       6.85622887      11.94896407
Pd       1.39280811       9.66204258      11.98714626
Pd       4.11777592       9.66324146      11.95099537
Pd       6.89476706       9.64088005      11.95142944
Pd       9.64982872       9.59779534      11.89439304
Pd      12.42487279       9.60955999      11.94161946
Pd       1.39688037      12.38304755      12.01629393
Pd       4.13062345      12.37660594      11.96411420
Pd       6.86816975      12.39901143      11.97280504
Pd       9.63028672      12.36702810      11.91406436
Pd      12.40709521      12.33642314      12.02398704
Pd       0.03210967       0.06215029      13.93325993
Pd       2.82511204       0.01732153      13.95937186
Pd       5.57222933       0.04335410      13.95927903
Pd       8.34632328       0.06434917      13.93038220
Pd      11.04128813      13.72802656      13.98496046
Pd      13.71641604       2.81459242      13.91699095
Pd       2.69276257       2.82293942      14.04345115
Pd       5.51584748       2.76004462      13.93039695
Pd       8.22695002       2.77314752      14.04629951
Pd      10.93551404       2.72118319      13.93594905
Pd      13.64077863       5.55386991      13.99336675
Pd       2.59447025       5.56067059      14.11318679
Pd       5.40028014       5.49810979      13.92860968
Pd       8.22321509       5.50974958      13.89837200
Pd      10.95890114       5.46545020      14.04598445
Pd       0.05669646       8.28991543      13.89100545
Pd       2.85155192       8.24356300      13.98698662
Pd       5.56544623       8.24654164      14.02190824
Pd       8.28252998       8.24018531      13.99782042
Pd      11.00781817       8.18006554      14.02361245
Pd       0.00297251      11.08739834      14.23562296
Pd       2.85201212      10.95851000      14.05965393
Pd       5.54582704      11.02186461      13.94512133
Pd       8.26012798      11.01019073      13.83295632
Pd      11.05195731      10.92203805      13.98127929
Pd      12.29774331       6.87578328      16.38563755
Pd       7.71531340       9.83819925      16.29126691
Pd       2.18452120      12.81166044      16.47727847
Pd       0.83924637       5.34478469      16.44188630
Pd      12.26939426       9.88176812      16.32284608
Pd       9.64600770       2.10506622      16.28508168
Pd       4.25672346       1.60693706      17.23234206
Pd       4.43035864       9.57559183      16.32332117
Pd       4.83641300      12.93464027      16.40102141
Pd       9.80425124      12.34640939      16.45826938
Pd       0.97156633       1.87835789      16.64953927
Pd       3.25272909       4.00354371      16.54115092
Pd      12.09785632       4.04477483      16.35135630
Pd       1.62041769       8.06119763      16.40460010
Pd       6.83863775       7.32874494      16.42807418
Pd       7.09854523       0.84863285      16.42752916
Pd       9.54261350       5.51139831      16.52406621
Pd       6.85354293       3.91429491      16.54780100
Pd      12.66245168      12.65025001      16.49494811
Pd       4.27706379       6.47044381      16.26375051
O        8.73903241       3.64499230      17.16042588
O        9.35083922      10.64116833      15.54956270
O       11.37108009      11.38650660      17.21191454
O       11.71575223       0.41648101      17.54494055
O       10.36258893       0.38500721      17.32576311
O        3.43740546       8.03842728      17.06843891
O        4.08454806       1.53041913      14.92669761
O        0.39120665       0.06436852      15.96265598
O        8.09465694      13.07659644      15.77918688
O        1.60094974      11.15138498      15.59608723
O        2.49233884       0.78866255      17.44297997
O        1.52490755       3.66060524      17.34966027
O        7.66263746       5.63453511      15.87717861
O        6.20698093       8.98127485      17.21615590
O        5.04525808       4.60247726      15.86985274
O       13.07021626       2.49970739      15.77375116
O       11.28661607       5.51510039      17.35534670
O       13.48363240       8.37661930      15.90144141
O        6.10327993       2.26102981      17.33365405
O        5.53663587      11.16945651      15.96054359
