115
Lattice="13.75323 0.0 0.0 0.0 13.75323 0.0 0.0 0.0 23.89" Properties=species:S:1:pos:R:3 entry_id=7 rank=23 energy=-572.70654296875 parent_id=6 pbc="T T F"
Pd       0.00000000       0.00000000      10.00000000
Pd       2.75064538       0.00000000      10.00000000
Pd       5.50129076       0.00000000      10.00000000
Pd       8.25193614       0.00000000      10.00000000
Pd      11.00258152       0.00000000      10.00000000
Pd       0.00000000       2.75064538      10.00000000
Pd       2.75064538       2.75064538      10.00000000
Pd       5.50129076       2.75064538      10.00000000
Pd       8.25193614       2.75064538      10.00000000
Pd      11.00258152       2.75064538      10.00000000
Pd       0.00000000       5.50129076      10.00000000
Pd       2.75064538       5.50129076      10.00000000
Pd       5.50129076       5.50129076      10.00000000
Pd       8.25193614       5.50129076      10.00000000
Pd      11.00258152       5.50129076      10.00000000
Pd       0.00000000       8.25193614      10.00000000
Pd       2.75064538       8.25193614      10.00000000
Pd       5.50129076       8.25193614      10.00000000
Pd       8.25193614       8.25193614      10.00000000
Pd      11.00258152       8.25193614      10.00000000
Pd       0.00000000      11.00258152      10.00000000
Pd       2.75064538      11.00258152      10.00000000
Pd       5.50129076      11.00258152      10.00000000
Pd       8.25193614      11.00258152      10.00000000
Pd      11.00258152      11.00258152      10.00000000
Pd       1.35814062       1.42495347      11.98137912
Pd       4.11145015       1.39959267      11.92676593
Pd       6.85766919       1.38316357      11.94795013
Pd       9.57512057       1.39592898      11.89594876
Pd      12.38684272       1.37174114      11.92044161
Pd       1.35463741       4.11984311      11.99957583
Pd       4.08741595       4.14705644      11.96627466
Pd       6.82431856       4.12732690      11.97604677
Pd       9.56728621       4.13975942      11.94281254
Pd      12.36578195       4.13265160      11.93417299
Pd       1.37110082       6.89256210      11.94010419
Pd       4.13935064       6.87026939      11.96482277
Pd       6.87097415       6.85831372      11.95140951
Pd       9.64205429       6.82915781      11.94515418
Pd      12.39111484       6.85622887      11.94896407
Pd       1.38470083       9.68219030      11.98958474
Pd       4.11777592       9.66324146      11.95099537
Pd       6.89476706       9.64088005      11.95142944
Pd       9.64982872       9.59779534      11.89439304
Pd      12.42487279       9.60955999      11.94161946
Pd       1.36390179      12.42446175      12.02182408
Pd       4.12342983      12.37248099      11.96824575
Pd       6.86816975      12.39901143      11.97280504
Pd       9.63028672      12.36702810      11.91406436
Pd      12.39314350      12.35751503      12.03446644
Pd      13.73837807       0.21611989      14.00722509
Pd       2.77005717       0.03377159      13.95918630
Pd       5.52747997       0.00708744      13.95908179
Pd       8.30894140       0.00126730      13.91660194
Pd      11.02253233      13.67384367      14.03082028
Pd      13.64358067       2.94878455      14.09788771
Pd       2.65922411       2.79792503      14.07666449
Pd       5.50843995       2.74531957      13.92930584
Pd       8.24907753       2.72837372      13.94714845
Pd      10.96787675       2.65018020      13.86891984
Pd      13.71140676       5.64433277      13.87855592
Pd       2.67750093       5.49777555      13.97271318
Pd       5.45359418       5.55418068      14.09409855
Pd       8.22742192       5.44303827      13.94075132
Pd      10.99483900       5.39555391      14.01118148
Pd       0.07873493       8.39348887      13.97493069
Pd       2.81112259       8.25456888      13.95956035
Pd       5.53069190       8.25538160      14.00892119
Pd       8.25808543       8.19657018      13.88887522
Pd      11.06076316       8.20934917      13.97981341
Pd      13.68174910      11.20649667      14.19445461
Pd       2.81727974      11.04110044      14.01853849
Pd       5.52446782      10.98333789      13.99488821
Pd       8.21963229      10.94327638      13.92286756
Pd      11.03995920      10.90501417      13.96005438
Pd      12.57822042       6.94394550      16.07713405
Pd       8.08917172       9.36137700      16.33408036
Pd       2.03475657      12.95015590      16.46788566
Pd       1.01392651       5.12862093      16.15242326
Pd      12.49250869       9.89766816      16.37978724
Pd       9.56085759       1.42074213      15.88800177
Pd       4.38968441       1.45146599      17.12579052
Pd       4.67044376       9.36627570      16.61673211
Pd       4.67024882      12.60283244      16.28851062
Pd       9.83865308      12.11058775      16.47810916
Pd       1.05071924       2.15849915      16.71672011
Pd       3.71401465       3.99925196      16.45841463
Pd      11.21760358       3.48483509      16.47989353
Pd       2.11318675       9.45435278      16.38582965
Pd       6.86372209       6.91340410      16.26229581
Pd       7.04589364       0.35057029      16.38167833
Pd       9.62960494       7.00504214      15.93888744
Pd       7.33944628       3.50859796      16.50109131
Pd      12.67764668      12.77814713      16.55776474
Pd       3.89407789       6.71257185      15.97657996
O        9.30336304       3.06155864      17.01579371
O        9.55988386      10.39960871      15.51319094
O       11.50694081      11.37078532      17.22956920
O       11.55528077       0.34876481      17.68120619
O       10.21157499       0.14068242      17.47397567
O        3.25124186       8.09456470      17.24867763
O        4.08618687       1.44017329      14.93123715
O        0.25274821       0.38405253      16.03514462
O        8.06625062      12.60304129      15.64949125
O        1.49505280      11.19925596      15.62264967
O        2.50785646       0.89948231      17.35782125
O        1.97670109       3.81561640      17.34880654
O        7.98707991       5.30815240      15.95243565
O        6.49848313       8.59769079      17.19360653
O        5.51910737       4.04259545      15.61837171
O       13.24110178       3.39419430      16.11979922
O       11.16727384       5.56641576      16.15123695
O        0.07348102       8.48615038      16.04967634
O        6.31572601       1.91583976      17.25787044
O        5.66976656      10.92977963      16.02316007
