115
Lattice="13.75323 0.0 0.0 0.0 13.75323 0.0 0.0 0.0 23.89" Properties=species:S:1:pos:R:3 entry_id=1 rank=33 energy=-571.2481689453125 parent_id=0 pbc="T T F"
Pd       0.00000000       0.00000000      10.00000000
Pd       2.75064538       0.00000000      10.00000000
Pd       5.50129076       0.00000000      10.00000000
Pd       8.25193614       0.00000000      10.00000000
Pd      11.00258152       0.00000000      10.00000000
Pd       0.00000000       2.75064538      10.00000000
Pd       2.75064538       2.75064538      10.00000000
Pd       5.50129076       2.75064538      10.00000000
Pd       8.25193614       2.75064538      10.00000000
Pd      11.00258152       2.75064538      10.00000000
Pd       0.00000000       5.50129076      10.00000000
Pd       2.75064538       5.50129076      10.00000000
Pd       5.50129076       5.50129076      10.00000000
Pd       8.25193614       5.50129076      10.00000000
Pd      11.00258152       5.50129076      10.00000000
Pd       0.00000000       8.25193614      10.00000000
Pd       2.75064538       8.25193614      10.00000000
Pd       5.50129076       8.25193614      10.00000000
Pd       8.25193614       8.25193614      10.00000000
Pd      11.00258152       8.25193614      10.00000000
Pd       0.00000000      11.00258152      10.00000000
Pd       2.75064538      11.00258152      10.00000000
Pd       5.50129076      11.00258152      10.00000000
Pd       8.25193614      11.00258152      10.00000000
Pd      11.00258152      11.00258152      10.00000000
Pd       1.29901978       1.38622653      12.06491869
Pd       4.05652809       1.39746158      11.93227957
Pd       6.81198511       1.38457035      11.91511410
Pd       9.57512057       1.39592898      11.89594876
Pd      12.38684272       1.37174114      11.92044161
Pd       1.34649673       4.10810503      12.01824057
Pd       4.06121157       4.15752258      11.96649129
Pd       6.81422415       4.15758302      11.95500875
Pd       9.56728621       4.13975942      11.94281254
Pd      12.36578195       4.13265160      11.93417299
Pd       1.37110082       6.89256210      11.94010419
Pd       4.13935064       6.87026939      11.96482277
Pd       6.87097415       6.85831372      11.95140951
Pd       9.64205429       6.82915781      11.94515418
Pd      12.39111484       6.85622887      11.94896407
Pd       1.35749098       9.66826343      11.98948761
Pd       4.11777592       9.66324146      11.95099537
Pd       6.89476706       9.64088005      11.95142944
Pd       9.64982872       9.59779534      11.89439304
Pd      12.42487279       9.60955999      11.94161946
Pd       1.34534985      12.42507806      12.03280972
Pd       4.13028710      12.40492017      11.94199251
Pd       6.86816975      12.39901143      11.97280504
Pd       9.63028672      12.36702810      11.91406436
Pd      12.41537178      12.34522839      12.00204151
Pd      13.63226467      13.65454879      14.23250319
Pd       2.68631677       0.04212568      14.01718019
Pd       5.50751713      13.72934966      13.97643894
Pd       8.22686804       0.03965475      13.82933874
Pd      10.95479590       0.04499049      13.83948515
Pd      13.59037714       2.66619252      14.10660723
Pd       2.60747528       2.83986450      14.09677981
Pd       5.48747507       2.75237129      13.86014159
Pd       8.19016595       2.78475883      13.84688664
Pd      10.92840198       2.73433814      13.86842144
Pd      13.74512212       5.39394788      14.00882591
Pd       2.69406135       5.58738318      14.00212151
Pd       5.46462932       5.57792118      14.07341717
Pd       8.19791936       5.52510824      13.98936898
Pd      10.97636302       5.41618590      13.94868570
Pd       0.08632876       8.16694796      13.98049304
Pd       2.77469457       8.33483139      13.93000166
Pd       5.52137726       8.25563811      13.99055634
Pd       8.25708145       8.32006061      13.96755143
Pd      11.02094958       8.20869031      13.92165658
Pd       0.11699999      10.94392320      14.28638742
Pd       2.82249569      11.09609596      13.88598131
Pd       5.58946601      10.96980772      13.98487766
Pd       8.29980162      11.10690781      14.11648347
Pd      11.04431897      10.96505668      13.89663075
Pd      12.40419209       6.60614157      16.09043302
Pd       9.04588179       9.61307327      16.35483236
Pd       1.78701770      13.06364199      16.50915801
Pd       1.27797868       6.23036204      16.38817691
Pd      12.37871356       9.32632865      16.04354837
Pd       9.33579227       1.44986519      15.73587799
Pd       4.43929741       1.36492826      16.91172408
Pd       5.41832682       9.41380101      16.63105933
Pd       4.23568462      12.34640540      16.02915285
Pd      10.51328182      12.55450075      16.22141407
Pd       1.12401281       2.53897298      16.64101978
Pd       3.72572631       4.24402707      16.28089395
Pd      11.21958156       3.29250512      16.62516594
Pd       2.80485397       9.86685211      16.20174183
Pd       7.10028969       7.08401243      16.46063552
Pd       7.24642714      13.66917213      16.35414955
Pd       9.67644382       6.98584261      15.93690952
Pd       7.31353011       3.43955164      16.42598996
Pd      13.26687401       0.40531395      17.14188266
Pd       3.86942859       7.03935540      15.95929953
O        9.20897989       2.97633612      17.03682233
O       10.78816307      10.50976273      15.93791768
O       12.47990800      12.88242372      15.92943201
O       11.45317781       1.42517549      17.54140422
O       10.31684077       0.58282077      17.32391789
O        5.20688134       7.56325360      17.30787536
O        4.10700456       1.46865591      14.86244049
O        0.29093437       1.71531444      18.23511407
O        8.50996912      12.13379627      16.06072884
O        1.23902395      11.21018716      16.06077252
O        2.50906515       1.06830337      17.11211739
O        1.96895317       4.50284597      17.01709479
O        7.92242278       5.31317005      16.00342946
O        7.39912164       8.93684079      17.10900779
O        5.54669826       4.01742225      15.54844427
O       13.19501988       3.45964637      15.96687682
O       10.98779242       5.22853827      16.03742376
O        0.14321024       7.95558969      16.09667258
O        6.39778636       1.62293516      16.91720285
O        5.83895790      11.20176921      16.01511436
