115
Lattice="13.75323 0.0 0.0 0.0 13.75323 0.0 0.0 0.0 23.89" Properties=species:S:1:pos:R:3 entry_id=2 rank=29 energy=-571.851318359375 parent_id=1 pbc="T T F"
Pd       0.00000000       0.00000000      10.00000000
Pd       2.75064538       0.00000000      10.00000000
Pd       5.50129076       0.00000000      10.00000000
Pd       8.25193614       0.00000000      10.00000000
Pd      11.00258152       0.00000000      10.00000000
Pd       0.00000000       2.75064538      10.00000000
Pd       2.75064538       2.75064538      10.00000000
Pd       5.50129076       2.75064538      10.00000000
Pd       8.25193614       2.75064538      10.00000000
Pd      11.00258152       2.75064538      10.00000000
Pd       0.00000000       5.50129076      10.00000000
Pd       2.75064538       5.50129076      10.00000000
Pd       5.50129076       5.50129076      10.00000000
Pd       8.25193614       5.50129076      10.00000000
Pd      11.00258152       5.50129076      10.00000000
Pd       0.00000000       8.25193614      10.00000000
Pd       2.75064538       8.25193614      10.00000000
Pd       5.50129076       8.25193614      10.00000000
Pd       8.25193614       8.25193614      10.00000000
Pd      11.00258152       8.25193614      10.00000000
Pd       0.00000000      11.00258152      10.00000000
Pd       2.75064538      11.00258152      10.00000000
Pd       5.50129076      11.00258152      10.00000000
Pd       8.25193614      11.00258152      10.00000000
Pd      11.00258152      11.00258152      10.00000000
Pd       1.33404920       1.40566096      12.01017203
Pd       4.08712265       1.39205012      11.91852906
Pd       6.83200022       1.38215439      11.91011940
Pd       9.57512057       1.39592898      11.89594876
Pd      12.38684272       1.37174114      11.92044161
Pd       1.35799318       4.11688869      12.00880855
Pd       4.07707188       4.15486106      11.95906859
Pd       6.82414991       4.15240441      11.95329126
Pd       9.56728621       4.13975942      11.94281254
Pd      12.36578195       4.13265160      11.93417299
Pd       1.37110082       6.89256210      11.94010419
Pd       4.13935064       6.87026939      11.96482277
Pd       6.87097415       6.85831372      11.95140951
Pd       9.64205429       6.82915781      11.94515418
Pd      12.39111484       6.85622887      11.94896407
Pd       1.36420429       9.67566219      12.02412399
Pd       4.11777592       9.66324146      11.95099537
Pd       6.89476706       9.64088005      11.95142944
Pd       9.64982872       9.59779534      11.89439304
Pd      12.42487279       9.60955999      11.94161946
Pd       1.33791409      12.40723364      12.04484778
Pd       4.09391300      12.37190959      11.96475142
Pd       6.86816975      12.39901143      11.97280504
Pd       9.63028672      12.36702810      11.91406436
Pd      12.40525546      12.33086392      12.04135984
Pd       0.00767811       0.09899278      14.08530315
Pd       2.75177158       0.04982269      13.97452538
Pd       5.53760716      13.73628575      13.95063153
Pd       8.25788408       0.00786762      13.82685878
Pd      11.01007474      13.72943014      13.90628795
Pd      13.61806711       2.79205838      14.08292605
Pd       2.64022016       2.81373744      14.07697919
Pd       5.50340548       2.75413218      13.85507528
Pd       8.20619195       2.75945776      13.85445198
Pd      10.95027479       2.68637872      13.85845236
Pd       0.02737174       5.50091666      13.94700195
Pd       2.74232903       5.55019754      13.98992544
Pd       5.50326965       5.56495637      14.08722097
Pd       8.24227635       5.48950206      13.96613615
Pd      11.00413125       5.36788095      13.96449090
Pd       0.10137803       8.31119738      14.01373581
Pd       2.80682711       8.30921131      14.00077257
Pd       5.54665584       8.25203736      13.97262824
Pd       8.29788658       8.29323120      13.92261348
Pd      11.04505717       8.15538300      13.90674859
Pd      13.49725682      11.17241536      14.54578981
Pd       2.71908666      11.07531706      14.04088963
Pd       5.47260057      10.97377377      13.92355607
Pd       8.20041143      11.07800423      14.14703452
Pd      10.91069769      10.90676932      13.90650356
Pd      12.44303292       6.48364690      16.11444650
Pd       8.78202024       9.47406451      16.37794644
Pd       2.03000285      13.07283490      16.45934172
Pd       1.32896653       6.16049146      16.33894881
Pd      12.24306664       9.16976669      16.10568000
Pd       9.39183435       1.39520231      15.70373935
Pd       4.53905779       1.40286978      16.94994087
Pd       5.13770201       9.53133433      16.60008612
Pd       4.63971814      12.46296230      16.20550076
Pd      10.52809959      12.29735481      16.29975072
Pd       1.16536983       2.42485709      16.61518048
Pd       3.79431410       4.17638699      16.27775352
Pd      11.29435217       3.15612787      16.62031748
Pd       2.51432860       9.71312680      16.47201819
Pd       7.03390051       7.05206712      16.18519444
Pd       7.29202682      13.67984282      16.38808969
Pd       9.72288788       6.91879407      15.96186439
Pd       7.40319845       3.42086612      16.44572526
Pd      13.34850008       0.07262989      17.00119517
Pd       4.06112290       6.90336729      15.99044884
O        9.28688472       2.88451291      17.04820950
O       10.58332483      10.27654534      15.96999492
O       12.52771067      12.25697957      16.20238691
O       11.55138989       1.20746201      17.40578523
O       10.38426493       0.41244553      17.21319876
O        3.69179159       8.36731389      17.30726558
O        4.17034562       1.43740192      14.87253639
O        0.28151301       1.46372639      18.05554999
O        8.50351728      12.12542281      16.05362722
O        1.49540228      11.27111057      15.76011477
O        2.62536564       1.06469847      17.16437400
O        2.01465500       4.41408729      16.95732859
O        7.99317769       5.29542898      15.98784572
O        7.02744556       8.82701475      17.01021445
O        5.62588648       3.98462672      15.56562822
O       13.24030941       3.35367383      16.00283689
O       11.03388491       5.10861681      16.05214218
O        0.12081383       7.89935870      16.10261024
O        6.49608166       1.64175440      16.98135878
O        6.03309165      11.08265595      15.87559635
