115
Lattice="13.75323 0.0 0.0 0.0 13.75323 0.0 0.0 0.0 23.89" Properties=species:S:1:pos:R:3 entry_id=28 rank=18 energy=-572.8617553710938 parent_id=25 pbc="T T F"
Pd       0.00000000       0.00000000      10.00000000
Pd       2.75064538       0.00000000      10.00000000
Pd       5.50129076       0.00000000      10.00000000
Pd       8.25193614       0.00000000      10.00000000
Pd      11.00258152       0.00000000      10.00000000
Pd       0.00000000       2.75064538      10.00000000
Pd       2.75064538       2.75064538      10.00000000
Pd       5.50129076       2.75064538      10.00000000
Pd       8.25193614       2.75064538      10.00000000
Pd      11.00258152       2.75064538      10.00000000
Pd       0.00000000       5.50129076      10.00000000
Pd       2.75064538       5.50129076      10.00000000
Pd       5.50129076       5.50129076      10.00000000
Pd       8.25193614       5.50129076      10.00000000
Pd      11.00258152       5.50129076      10.00000000
Pd       0.00000000       8.25193614      10.00000000
Pd       2.75064538       8.25193614      10.00000000
Pd       5.50129076       8.25193614      10.00000000
Pd       8.25193614       8.25193614      10.00000000
Pd      11.00258152       8.25193614      10.00000000
Pd       0.00000000      11.00258152      10.00000000
Pd       2.75064538      11.00258152      10.00000000
Pd       5.50129076      11.00258152      10.00000000
Pd       8.25193614      11.00258152      10.00000000
Pd      11.00258152      11.00258152      10.00000000
Pd       1.38605711       1.39492404      11.95349090
Pd       4.11675087       1.38554538      11.92089970
Pd       6.86813959       1.38216622      11.94890374
Pd       9.57512057       1.39592898      11.89594876
Pd      12.38684272       1.37174114      11.92044161
Pd       1.36257628       4.15119100      12.01406875
Pd       4.06665488       4.13840096      11.95877586
Pd       6.81886131       4.11126434      11.96179320
Pd       9.56728621       4.13975942      11.94281254
Pd      12.36578195       4.13265160      11.93417299
Pd       1.37110082       6.89256210      11.94010419
Pd       4.13935064       6.87026939      11.96482277
Pd       6.87097415       6.85831372      11.95140951
Pd       9.64205429       6.82915781      11.94515418
Pd      12.39111484       6.85622887      11.94896407
Pd       1.39648401       9.65895530      11.98856694
Pd       4.11777592       9.66324146      11.95099537
Pd       6.89476706       9.64088005      11.95142944
Pd       9.64982872       9.59779534      11.89439304
Pd      12.42487279       9.60955999      11.94161946
Pd       1.38571476      12.37938335      12.02027172
Pd       4.12144362      12.37253086      11.96782760
Pd       6.86816975      12.39901143      11.97280504
Pd       9.63028672      12.36702810      11.91406436
Pd      12.39160389      12.34495742      12.03003227
Pd      13.75310317       0.05545512      13.93872455
Pd       2.79371874       0.00034509      13.97583985
Pd       5.54390289       0.03612708      13.95789654
Pd       8.32036144       0.06524573      13.95302657
Pd      11.00628521       0.00871130      14.02682434
Pd      13.72745625       2.80511121      13.90376719
Pd       2.69194802       2.80993740      14.04106455
Pd       5.49718974       2.75500072      13.94313336
Pd       8.21209391       2.79416765      13.95243246
Pd      10.94960816       2.76931678      13.92810696
Pd      13.65130669       5.54613883      13.99550771
Pd       2.60498262       5.54835278      14.10679050
Pd       5.40844392       5.49597244      13.92904283
Pd       8.22642305       5.51547145      13.89593410
Pd      10.96184177       5.50157011      14.03891175
Pd       0.06466454       8.28307142      13.89771888
Pd       2.86319565       8.23476895      13.99023001
Pd       5.58054304       8.23060763      14.01549729
Pd       8.29798181       8.22675822      13.97358374
Pd      11.02685468       8.20714325      14.02460840
Pd      13.73686132      11.07989479      14.21750501
Pd       2.84271009      10.95112636      14.07920332
Pd       5.53469037      11.00829769      13.94497252
Pd       8.24430874      11.00251852      13.84716053
Pd      11.04293438      10.94343812      13.98448106
Pd      12.33026092       6.92255549      16.36012018
Pd       7.77146097       9.68845255      16.27174344
Pd       2.07556110      12.78838600      16.50017627
Pd       0.89545394       5.37515841      16.44733248
Pd      12.28714036       9.89528819      16.34636609
Pd       9.51646910       1.77731031      16.00292454
Pd       4.18718515       1.48687401      17.25340771
Pd       4.47056243       9.46848558      16.33127341
Pd       4.71371845      12.79997801      16.34819755
Pd       9.74281319      12.24967564      16.48197924
Pd       0.92442381       1.88082685      16.66660520
Pd       3.23651664       3.91788555      16.55853497
Pd      12.15059253       4.12883532      16.31116885
Pd       1.66629640       8.06023862      16.41905151
Pd       6.86666536       7.16374804      16.38686490
Pd       6.98721040       0.62102134      16.43909423
Pd       9.54872220       5.29912809      16.50033497
Pd       6.83742994       3.70740710      16.51473350
Pd      12.58713834      12.66003696      16.52096036
Pd       4.29234220       6.35123048      16.27055997
O        8.74490776       3.34539842      17.02227591
O        9.38198628      10.54529731      15.53336623
O       11.33755619      11.36294165      17.25163101
O       11.58376359       0.40979122      17.55025540
O       10.22546881       0.30444700      17.38218528
O        3.48039319       7.93416874      17.07846291
O        4.05906162       1.48651991      14.93020817
O        0.30510819       0.07928778      15.97415182
O        8.00595310      12.88071442      15.73753052
O        1.54984885      11.13024163      15.58881431
O        2.39583964       0.74593135      17.48688502
O        1.49662636       3.65872804      17.37065983
O        7.66021428       5.43153365      15.87315951
O        6.26007505       8.83031638      17.17499996
O        5.03549113       4.45900693      15.85737035
O       13.05904637       2.53929563      15.75920869
O       11.28843720       5.56431296      17.30834086
O       13.53673111       8.42049600      15.91338272
O        6.05280094       2.07968606      17.32819708
O        5.53780289      11.07498643      15.96147549
