115
Lattice="13.75323 0.0 0.0 0.0 13.75323 0.0 0.0 0.0 23.89" Properties=species:S:1:pos:R:3 entry_id=24 rank=21 energy=-572.8221435546875 parent_id=23 pbc="T T F"
Pd       0.00000000       0.00000000      10.00000000
Pd       2.75064538       0.00000000      10.00000000
Pd       5.50129076       0.00000000      10.00000000
Pd       8.25193614       0.00000000      10.00000000
Pd      11.00258152       0.00000000      10.00000000
Pd       0.00000000       2.75064538      10.00000000
Pd       2.75064538       2.75064538      10.00000000
Pd       5.50129076       2.75064538      10.00000000
Pd       8.25193614       2.75064538      10.00000000
Pd      11.00258152       2.75064538      10.00000000
Pd       0.00000000       5.50129076      10.00000000
Pd       2.75064538       5.50129076      10.00000000
Pd       5.50129076       5.50129076      10.00000000
Pd       8.25193614       5.50129076      10.00000000
Pd      11.00258152       5.50129076      10.00000000
Pd       0.00000000       8.25193614      10.00000000
Pd       2.75064538       8.25193614      10.00000000
Pd       5.50129076       8.25193614      10.00000000
Pd       8.25193614       8.25193614      10.00000000
Pd      11.00258152       8.25193614      10.00000000
Pd       0.00000000      11.00258152      10.00000000
Pd       2.75064538      11.00258152      10.00000000
Pd       5.50129076      11.00258152      10.00000000
Pd       8.25193614      11.00258152      10.00000000
Pd      11.00258152      11.00258152      10.00000000
Pd       1.38669269       1.39858422      11.95516051
Pd       4.12094412       1.39359613      11.92115742
Pd       6.87866686       1.38935563      11.94781646
Pd       9.57512057       1.39592898      11.89594876
Pd      12.38684272       1.37174114      11.92044161
Pd       1.35911705       4.14995870      12.01611480
Pd       4.06862101       4.14004278      11.95900238
Pd       6.82754348       4.10611019      11.97109832
Pd       9.56728621       4.13975942      11.94281254
Pd      12.36578195       4.13265160      11.93417299
Pd       1.37110082       6.89256210      11.94010419
Pd       4.13935064       6.87026939      11.96482277
Pd       6.87097415       6.85831372      11.95140951
Pd       9.64205429       6.82915781      11.94515418
Pd      12.39111484       6.85622887      11.94896407
Pd       1.39183300       9.66293881      11.99128162
Pd       4.11777592       9.66324146      11.95099537
Pd       6.89476706       9.64088005      11.95142944
Pd       9.64982872       9.59779534      11.89439304
Pd      12.42487279       9.60955999      11.94161946
Pd       1.39586867      12.38228314      12.02324409
Pd       4.12333943      12.37850454      11.96502192
Pd       6.86816975      12.39901143      11.97280504
Pd       9.63028672      12.36702810      11.91406436
Pd      12.40768612      12.33565665      12.02536047
Pd       0.02221972       0.06333666      13.93529232
Pd       2.82455504       0.01809950      13.97262768
Pd       5.57219328       0.04365879      13.94317704
Pd       8.34021453       0.06438287      13.93316323
Pd      11.03219708      13.72317162      13.98064957
Pd      13.71072517       2.81406700      13.91341652
Pd       2.68367747       2.82659501      14.03926196
Pd       5.51442868       2.75492358      13.94207488
Pd       8.22535853       2.77370044      14.03237371
Pd      10.93245520       2.71670331      13.94768125
Pd      13.63504106       5.54784915      13.99136092
Pd       2.58506637       5.56014125      14.10441942
Pd       5.39584552       5.50344984      13.92324320
Pd       8.22342571       5.50785241      13.88894339
Pd      10.95490392       5.46782982      14.04545680
Pd       0.04683174       8.28523487      13.89774857
Pd       2.84114010       8.24073414      13.98100212
Pd       5.55565697       8.25608508      14.01708780
Pd       8.27768326       8.24188647      13.99688137
Pd      10.99813278       8.18273378      14.02610367
Pd       0.00458257      11.09039990      14.23980282
Pd       2.84968020      10.95580802      14.07928023
Pd       5.54624243      11.02862619      13.94161506
Pd       8.25922736      11.01132265      13.83208555
Pd      11.05267852      10.92142989      13.98427039
Pd      12.26825500       6.92700382      16.38519500
Pd       7.73133482       9.83517605      16.28696612
Pd       2.13650760      12.84346848      16.49199488
Pd       0.80588839       5.40900042      16.45559771
Pd      12.27304121       9.91841116      16.34143277
Pd       9.59496318       2.12498605      16.29275906
Pd       4.20495787       1.62473244      17.23338526
Pd       4.43422270       9.59996150      16.31273869
Pd       4.78799790      12.95514810      16.36940177
Pd       9.78270321      12.36261159      16.46340875
Pd       0.92243425       1.92569237      16.65306157
Pd       3.19537048       4.02707468      16.53836021
Pd      12.06048614       4.10227420      16.35358194
Pd       1.61836068       8.10696071      16.40685883
Pd       6.81510261       7.33568822      16.41147457
Pd       7.06090087       0.85289564      16.42342921
Pd       9.48711452       5.53302820      16.50615556
Pd       6.79956220       3.91738817      16.54057322
Pd      12.63301700      12.68794725      16.50100729
Pd       4.25102602       6.48289385      16.24293634
O        8.68513064       3.66493082      17.15687396
O        9.35926738      10.65311410      15.54554283
O       11.35478055      11.41602052      17.22306092
O       11.67246715       0.46165105      17.52885659
O       10.31757364       0.40819705      17.32601369
O        3.43909517       8.06349653      17.05463273
O        4.05800675       1.55246532      14.94893327
O        0.35327118       0.10761431      15.96485951
O        8.07019651      13.08443530      15.78235196
O        1.59079456      11.16764305      15.61282829
O        2.43356629       0.82457971      17.45057364
O        1.46407173       3.71120789      17.35424041
O        7.60670235       5.63035827      15.85259007
O        6.20970191       8.99544287      17.20412106
O        4.99241159       4.60212481      15.85730034
O       13.02991319       2.55680972      15.76778647
O       11.23043381       5.57343064      17.33998414
O       13.47838515       8.41193081      15.91036497
O        6.05691389       2.26228733      17.32756549
O        5.52546682      11.19951064      15.95413657
