115
Lattice="13.75323 0.0 0.0 0.0 13.75323 0.0 0.0 0.0 23.89" Properties=species:S:1:pos:R:3 entry_id=3 rank=31 energy=-571.8116455078125 parent_id=2 pbc="T T F"
Pd       0.00000000       0.00000000      10.00000000
Pd       2.75064538       0.00000000      10.00000000
Pd       5.50129076       0.00000000      10.00000000
Pd       8.25193614       0.00000000      10.00000000
Pd      11.00258152       0.00000000      10.00000000
Pd       0.00000000       2.75064538      10.00000000
Pd       2.75064538       2.75064538      10.00000000
Pd       5.50129076       2.75064538      10.00000000
Pd       8.25193614       2.75064538      10.00000000
Pd      11.00258152       2.75064538      10.00000000
Pd       0.00000000       5.50129076      10.00000000
Pd       2.75064538       5.50129076      10.00000000
Pd       5.50129076       5.50129076      10.00000000
Pd       8.25193614       5.50129076      10.00000000
Pd      11.00258152       5.50129076      10.00000000
Pd       0.00000000       8.25193614      10.00000000
Pd       2.75064538       8.25193614      10.00000000
Pd       5.50129076       8.25193614      10.00000000
Pd       8.25193614       8.25193614      10.00000000
Pd      11.00258152       8.25193614      10.00000000
Pd       0.00000000      11.00258152      10.00000000
Pd       2.75064538      11.00258152      10.00000000
Pd       5.50129076      11.00258152      10.00000000
Pd       8.25193614      11.00258152      10.00000000
Pd      11.00258152      11.00258152      10.00000000
Pd       1.31573995       1.41684088      12.03383402
Pd       4.07022095       1.41982361      11.90831396
Pd       6.83378105       1.39434749      11.90550891
Pd       9.57512057       1.39592898      11.89594876
Pd      12.38684272       1.37174114      11.92044161
Pd       1.35400440       4.12707642      12.01103277
Pd       4.07181505       4.17479458      11.96712683
Pd       6.83075584       4.15924735      11.96432999
Pd       9.56728621       4.13975942      11.94281254
Pd      12.36578195       4.13265160      11.93417299
Pd       1.37110082       6.89256210      11.94010419
Pd       4.13935064       6.87026939      11.96482277
Pd       6.87097415       6.85831372      11.95140951
Pd       9.64205429       6.82915781      11.94515418
Pd      12.39111484       6.85622887      11.94896407
Pd       1.37953816       9.65135036      11.99247754
Pd       4.11777592       9.66324146      11.95099537
Pd       6.89476706       9.64088005      11.95142944
Pd       9.64982872       9.59779534      11.89439304
Pd      12.42487279       9.60955999      11.94161946
Pd       1.34868727      12.41909869      11.99610692
Pd       4.09746583      12.39356353      11.93223703
Pd       6.86816975      12.39901143      11.97280504
Pd       9.63028672      12.36702810      11.91406436
Pd      12.38710675      12.34894446      12.00371139
Pd       0.00676459      13.73566702      14.05973289
Pd       2.72476970       0.08489467      13.96783397
Pd       5.47559751       0.04638303      13.88221078
Pd       8.22442764      13.73287944      13.84756065
Pd      10.96641770      13.71873925      14.00769066
Pd      13.56807659       2.72303964      14.11689370
Pd       2.59644562       2.88689931      14.09078082
Pd       5.49704409       2.78564254      13.85023462
Pd       8.20766134       2.72894286      13.87897719
Pd      10.90340066       2.67404130      13.89334351
Pd       0.03326772       5.41865587      13.98894151
Pd       2.75165116       5.62222069      14.02396527
Pd       5.50784053       5.62409289      14.09593057
Pd       8.24590045       5.48569458      13.98882210
Pd      11.00650290       5.37272999      13.96153659
Pd       0.13523063       8.17119078      13.98502931
Pd       2.82472634       8.35295072      14.00026995
Pd       5.56928955       8.31930504      13.98747276
Pd       8.32562032       8.29663376      13.96553245
Pd      11.06999170       8.17784082      13.93077600
Pd       0.00064998      10.96252398      14.15109785
Pd       2.75543348      11.11462439      13.95590149
Pd       5.49400065      11.06921843      13.90203366
Pd       8.26519190      11.03693635      14.06247673
Pd      10.97206521      10.91716366      13.90312440
Pd      12.45697625       6.53291692      16.10643587
Pd       9.04965286       9.65195654      16.44436974
Pd       1.80696191      13.12344822      16.42277533
Pd       1.35913101       6.21339776      16.37845018
Pd      12.44425139       9.26814619      16.05370530
Pd       9.22742481       1.27566154      15.81977637
Pd       4.44057599       1.39670694      16.90475420
Pd       5.65083102      10.08064146      16.40817962
Pd       4.28217955      12.37778370      15.98015129
Pd      10.57121512      12.33767721      16.68797851
Pd       1.09373261       2.54080236      16.66524085
Pd       3.76798553       4.27786261      16.28618191
Pd      11.16838658       3.20979868      16.62375395
Pd       2.80429108       9.99185529      16.38019880
Pd       7.09944671       7.15690073      16.22759147
Pd       6.80885552      13.49921549      16.22860532
Pd       9.73260707       6.96419659      15.94632228
Pd       7.32742120       3.43125781      16.41391886
Pd      13.17124212       0.38430274      16.87420911
Pd       4.12936231       7.09356480      16.02312291
O        9.17866248       2.88274914      17.03001880
O       10.87667744      10.46467834      15.95012258
O       12.14845993      13.03183408      15.62335386
O       11.40454812       1.33798471      17.55164802
O       10.25057431       0.47229848      17.43159554
O        4.24171658       8.83969002      17.04700498
O        4.07954199       1.54069916      14.85051653
O        0.24677688       1.51987134      18.11706192
O        9.12840689      11.37919617      17.51957898
O        1.35124013      11.26795200      15.82011980
O        2.50935199       1.10363513      17.10843774
O        2.00526701       4.47397433      17.01456912
O        7.91898354       5.33065553      15.99931867
O        7.26778352       8.96467746      16.98234277
O        5.57628741       4.03813816      15.54609919
O       13.15403449       3.43820747      16.00657681
O       11.00430173       5.17942534      16.05209668
O        0.19159330       7.89966204      16.09395033
O        6.41192249       1.58708633      16.91354840
O        6.87371330      11.54548122      15.64785841
