115
Lattice="13.75323 0.0 0.0 0.0 13.75323 0.0 0.0 0.0 23.89" Properties=species:S:1:pos:R:3 entry_id=9 rank=10 energy=-572.9103393554688 parent_id=8 pbc="T T F"
Pd       0.00000000       0.00000000      10.00000000
Pd       2.75064538       0.00000000      10.00000000
Pd       5.50129076       0.00000000      10.00000000
Pd       8.25193614       0.00000000      10.00000000
Pd      11.00258152       0.00000000      10.00000000
Pd       0.00000000       2.75064538      10.00000000
Pd       2.75064538       2.75064538      10.00000000
Pd       5.50129076       2.75064538      10.00000000
Pd       8.25193614       2.75064538      10.00000000
Pd      11.00258152       2.75064538      10.00000000
Pd       0.00000000       5.50129076      10.00000000
Pd       2.75064538       5.50129076      10.00000000
Pd       5.50129076       5.50129076      10.00000000
Pd       8.25193614       5.50129076      10.00000000
Pd      11.00258152       5.50129076      10.00000000
Pd       0.00000000       8.25193614      10.00000000
Pd       2.75064538       8.25193614      10.00000000
Pd       5.50129076       8.25193614      10.00000000
Pd       8.25193614       8.25193614      10.00000000
Pd      11.00258152       8.25193614      10.00000000
Pd       0.00000000      11.00258152      10.00000000
Pd       2.75064538      11.00258152      10.00000000
Pd       5.50129076      11.00258152      10.00000000
Pd       8.25193614      11.00258152      10.00000000
Pd      11.00258152      11.00258152      10.00000000
Pd       1.35649984       1.42944656      11.98177568
Pd       4.10827992       1.39145061      11.92135412
Pd       6.85634342       1.37582783      11.94336143
Pd       9.57512057       1.39592898      11.89594876
Pd      12.38684272       1.37174114      11.92044161
Pd       1.35448304       4.13259623      12.01327166
Pd       4.07837519       4.14402090      11.96463975
Pd       6.82966017       4.11552959      11.96438182
Pd       9.56728621       4.13975942      11.94281254
Pd      12.36578195       4.13265160      11.93417299
Pd       1.37110082       6.89256210      11.94010419
Pd       4.13935064       6.87026939      11.96482277
Pd       6.87097415       6.85831372      11.95140951
Pd       9.64205429       6.82915781      11.94515418
Pd      12.39111484       6.85622887      11.94896407
Pd       1.39630827       9.68443370      11.99629809
Pd       4.11777592       9.66324146      11.95099537
Pd       6.89476706       9.64088005      11.95142944
Pd       9.64982872       9.59779534      11.89439304
Pd      12.42487279       9.60955999      11.94161946
Pd       1.36425593      12.41972058      12.04212933
Pd       4.11186913      12.36480601      11.96506863
Pd       6.86816975      12.39901143      11.97280504
Pd       9.63028672      12.36702810      11.91406436
Pd      12.40254266      12.35294449      12.04742439
Pd      13.73064396       0.23290599      14.00823529
Pd       2.77480765       0.02008080      13.95286806
Pd       5.52666357       0.00187739      13.94829862
Pd       8.29999333      13.74742523      13.92034680
Pd      11.01542263      13.67787944      14.03180807
Pd      13.62911428       2.96478403      14.09874026
Pd       2.64806191       2.80471245      14.06681278
Pd       5.50211813       2.72521536      13.92220367
Pd       8.23730319       2.72819236      13.94104749
Pd      10.95655305       2.65291835      13.87058854
Pd      13.70966500       5.64721008      13.90474803
Pd       2.66791363       5.51677513      14.01437127
Pd       5.47543407       5.52237415      14.01539492
Pd       8.23100929       5.44982710      13.93878474
Pd      10.98128779       5.39549291      14.00487885
Pd       0.06525856       8.41424902      13.94452898
Pd       2.81111503       8.26272188      14.01305090
Pd       5.53551403       8.25273221      13.99733816
Pd       8.25271813       8.20529831      13.88324505
Pd      11.03668073       8.21258817      13.96518522
Pd      13.72845807      11.22866625      14.27416852
Pd       2.81547339      10.98979740      14.09505485
Pd       5.51845108      10.98750429      13.97417802
Pd       8.22895182      10.94970670      13.91384104
Pd      11.06793961      10.90820863      13.97861647
Pd      12.41548389       6.89965106      16.07074783
Pd       8.02110238       9.41005446      16.30772836
Pd       1.99626048      13.03239579      16.46593768
Pd       0.95596960       5.35968969      16.28993045
Pd      12.47431363       9.93622943      16.39749349
Pd       9.52656082       1.42354696      15.88297004
Pd       4.34384497       1.50653114      17.13769390
Pd       4.58718931       9.40958932      16.54076462
Pd       4.61577499      12.67962436      16.28323036
Pd       9.82033345      12.13511269      16.48103200
Pd       1.01311613       2.24510393      16.70007253
Pd       3.67713514       4.02626341      16.42183312
Pd      11.19851685       3.46132833      16.48351272
Pd       1.77277630       8.04327426      16.59781897
Pd       6.86904395       6.94049908      16.31293162
Pd       7.01643439       0.37017082      16.38875287
Pd       9.57997461       7.04026146      15.95294741
Pd       7.31076691       3.52190837      16.49167052
Pd      12.66472205      12.82987134      16.55581831
Pd       4.11983916       6.66903920      15.94696748
O        9.27619062       3.05917093      17.01556142
O        9.53349862      10.42196861      15.52449346
O       11.50594124      11.41882006      17.22724721
O       11.53194169       0.38967688      17.68038472
O       10.18836371       0.16592386      17.47844057
O        3.54854103       7.93867460      17.36867898
O        4.05912397       1.45578409      14.92880764
O        0.21929343       0.45812653      16.03693305
O        8.03882859      12.62101933      15.66940326
O        1.53449478      11.32583908      15.60525101
O        2.45577787       0.98188960      17.37312501
O        1.93359914       3.91085454      17.30352188
O        7.94710366       5.32727592      15.94718916
O        6.41431231       8.65113940      17.14806163
O        5.49549676       4.04066697      15.59135704
O       13.21601098       3.45340117      16.09264547
O       11.03916208       5.51336134      16.14349440
O       13.67797636       8.40970242      16.01266422
O        6.27715992       1.93922343      17.25266350
O        5.57410439      10.99554818      15.99210411
