115
Lattice="13.75323 0.0 0.0 0.0 13.75323 0.0 0.0 0.0 23.89" Properties=species:S:1:pos:R:3 entry_id=21 rank=28 energy=-571.8566284179688 parent_id=5 pbc="T T F"
Pd       0.00000000       0.00000000      10.00000000
Pd       2.75064538       0.00000000      10.00000000
Pd       5.50129076       0.00000000      10.00000000
Pd       8.25193614       0.00000000      10.00000000
Pd      11.00258152       0.00000000      10.00000000
Pd       0.00000000       2.75064538      10.00000000
Pd       2.75064538       2.75064538      10.00000000
Pd       5.50129076       2.75064538      10.00000000
Pd       8.25193614       2.75064538      10.00000000
Pd      11.00258152       2.75064538      10.00000000
Pd       0.00000000       5.50129076      10.00000000
Pd       2.75064538       5.50129076      10.00000000
Pd       5.50129076       5.50129076      10.00000000
Pd       8.25193614       5.50129076      10.00000000
Pd      11.00258152       5.50129076      10.00000000
Pd       0.00000000       8.25193614      10.00000000
Pd       2.75064538       8.25193614      10.00000000
Pd       5.50129076       8.25193614      10.00000000
Pd       8.25193614       8.25193614      10.00000000
Pd      11.00258152       8.25193614      10.00000000
Pd       0.00000000      11.00258152      10.00000000
Pd       2.75064538      11.00258152      10.00000000
Pd       5.50129076      11.00258152      10.00000000
Pd       8.25193614      11.00258152      10.00000000
Pd      11.00258152      11.00258152      10.00000000
Pd       1.35136786       1.40934384      12.00712224
Pd       4.11528963       1.39229570      11.93001455
Pd       6.86213569       1.37722065      11.96521582
Pd       9.57512057       1.39592898      11.89594876
Pd      12.38684272       1.37174114      11.92044161
Pd       1.34147119       4.12062848      12.01457022
Pd       4.07289944       4.15188646      11.96609738
Pd       6.84223477       4.13422361      11.96355550
Pd       9.56728621       4.13975942      11.94281254
Pd      12.36578195       4.13265160      11.93417299
Pd       1.37110082       6.89256210      11.94010419
Pd       4.13935064       6.87026939      11.96482277
Pd       6.87097415       6.85831372      11.95140951
Pd       9.64205429       6.82915781      11.94515418
Pd      12.39111484       6.85622887      11.94896407
Pd       1.36629840       9.65413206      11.99413591
Pd       4.11777592       9.66324146      11.95099537
Pd       6.89476706       9.64088005      11.95142944
Pd       9.64982872       9.59779534      11.89439304
Pd      12.42487279       9.60955999      11.94161946
Pd       1.38308869      12.40838674      11.99608928
Pd       4.14593547      12.39732655      11.96242727
Pd       6.86816975      12.39901143      11.97280504
Pd       9.63028672      12.36702810      11.91406436
Pd      12.41240923      12.33106301      11.99840178
Pd       0.07252685       0.05275400      14.02221880
Pd       2.79194674       0.02575948      13.97879890
Pd       5.61083138       0.00579852      14.05144052
Pd       8.36723093       0.07284624      13.97055914
Pd      11.07347520      13.71734994      13.94184654
Pd      13.55212662       2.76306807      14.08743734
Pd       2.60271338       2.82579656      14.05796271
Pd       5.54071736       2.77887764      13.87135649
Pd       8.25532666       2.74054856      14.01155642
Pd      10.90205011       2.65782840      13.87399355
Pd      13.71801307       5.46363980      13.98209026
Pd       2.67278509       5.57874519      13.98198624
Pd       5.43223868       5.64632726      14.02683498
Pd       8.19956776       5.50138334      13.94883923
Pd      10.95278670       5.35651177      13.96743695
Pd       0.08357256       8.23414729      14.00508790
Pd       2.77822429       8.33299022      13.97598526
Pd       5.51955392       8.30583658      13.97344047
Pd       8.26293377       8.31771580      13.94833043
Pd      11.01885066       8.15208500      13.90446850
Pd       0.02381437      11.03446908      14.17726718
Pd       2.77678172      11.04469241      13.93640406
Pd       5.53988447      11.00087674      13.96627100
Pd       8.27452865      11.06272405      13.93555675
Pd      10.98190547      10.88977600      13.92438146
Pd      12.32436439       6.57692755      16.10217484
Pd       8.65176746       9.67684817      16.40392209
Pd       1.61988985      13.23432538      16.41581074
Pd       1.21052716       6.22408729      16.34451119
Pd      12.20208068       9.29151537      16.04719780
Pd       8.17461558       1.20636158      16.73017726
Pd       4.37236421       1.53025579      16.89022195
Pd       4.91265740       9.56546957      16.60985274
Pd       4.04580755      12.35956929      16.01297003
Pd      10.22071581      12.35862127      16.51919546
Pd       0.91869666       2.56420461      16.64219476
Pd       3.61128176       4.27031995      16.26482326
Pd      10.91015725       3.25956229      16.54571866
Pd       2.21015761       9.98429047      16.38739882
Pd       6.94723149       7.31518860      16.27697821
Pd       7.22826203      12.66785212      16.03314837
Pd       9.61440908       7.04429188      15.95485096
Pd       7.17035257       3.75706895      16.42773152
Pd      12.91608515       0.38388757      16.79611313
Pd       3.96590898       6.98462687      15.98235349
O        8.96042009       3.10423420      17.14341303
O       10.54198954      10.41794429      15.96719560
O       11.90389987      12.92180623      15.66185520
O       11.11382188       1.37243462      17.24119379
O        9.93985151       0.45715650      17.26745696
O        3.33065327       8.51479351      17.12260363
O        4.14002264       1.51031191      14.85068824
O        0.01106229       1.52450045      18.02639534
O        8.50593638      11.63991148      17.21666158
O        0.90981025      11.42639232      16.01307425
O        2.41987867       1.19368874      17.06761962
O        1.84023692       4.46747823      16.97874118
O        7.84065405       5.57387348      15.96520559
O        6.86308774       9.07491075      17.06859248
O        5.42526161       4.17412616      15.49886806
O       12.96503580       3.43458504      15.94751198
O       10.85419405       5.24174244      16.05426014
O        0.03744883       7.96586017      16.10284990
O        6.33384338       1.98902574      16.94873604
O        5.74046422      11.27591458      16.05596865
