115
Lattice="13.75323 0.0 0.0 0.0 13.75323 0.0 0.0 0.0 23.89" Properties=species:S:1:pos:R:3 entry_id=12 rank=15 energy=-572.8756713867188 parent_id=9 pbc="T T F"
Pd       0.00000000       0.00000000      10.00000000
Pd       2.75064538       0.00000000      10.00000000
Pd       5.50129076       0.00000000      10.00000000
Pd       8.25193614       0.00000000      10.00000000
Pd      11.00258152       0.00000000      10.00000000
Pd       0.00000000       2.75064538      10.00000000
Pd       2.75064538       2.75064538      10.00000000
Pd       5.50129076       2.75064538      10.00000000
Pd       8.25193614       2.75064538      10.00000000
Pd      11.00258152       2.75064538      10.00000000
Pd       0.00000000       5.50129076      10.00000000
Pd       2.75064538       5.50129076      10.00000000
Pd       5.50129076       5.50129076      10.00000000
Pd       8.25193614       5.50129076      10.00000000
Pd      11.00258152       5.50129076      10.00000000
Pd       0.00000000       8.25193614      10.00000000
Pd       2.75064538       8.25193614      10.00000000
Pd       5.50129076       8.25193614      10.00000000
Pd       8.25193614       8.25193614      10.00000000
Pd      11.00258152       8.25193614      10.00000000
Pd       0.00000000      11.00258152      10.00000000
Pd       2.75064538      11.00258152      10.00000000
Pd       5.50129076      11.00258152      10.00000000
Pd       8.25193614      11.00258152      10.00000000
Pd      11.00258152      11.00258152      10.00000000
Pd       1.34790653       1.43712611      11.97655974
Pd       4.09940926       1.40348244      11.93673361
Pd       6.87112909       1.40176621      11.91873661
Pd       9.57512057       1.39592898      11.89594876
Pd      12.38684272       1.37174114      11.92044161
Pd       1.33703258       4.14681404      12.00210910
Pd       4.06487289       4.14263889      11.97479647
Pd       6.81923525       4.11977942      11.96014200
Pd       9.56728621       4.13975942      11.94281254
Pd      12.36578195       4.13265160      11.93417299
Pd       1.37110082       6.89256210      11.94010419
Pd       4.13935064       6.87026939      11.96482277
Pd       6.87097415       6.85831372      11.95140951
Pd       9.64205429       6.82915781      11.94515418
Pd      12.39111484       6.85622887      11.94896407
Pd       1.39889987       9.68850889      11.99241885
Pd       4.11777592       9.66324146      11.95099537
Pd       6.89476706       9.64088005      11.95142944
Pd       9.64982872       9.59779534      11.89439304
Pd      12.42487279       9.60955999      11.94161946
Pd       1.35681157      12.42565107      12.03462122
Pd       4.10808360      12.36524933      11.97479271
Pd       6.86816975      12.39901143      11.97280504
Pd       9.63028672      12.36702810      11.91406436
Pd      12.39657664      12.35240556      12.05057047
Pd      13.73012641       0.25338973      14.01004647
Pd       2.72675415       0.05731159      13.93750776
Pd       5.63592637       0.05430544      13.82569850
Pd       8.36159452      13.74225609      13.93611913
Pd      11.04221207      13.68901605      14.04452529
Pd      13.61907690       2.98762095      14.10716756
Pd       2.63054817       2.78958663      14.04758773
Pd       5.42682855       2.72710290      13.95208516
Pd       8.19938859       2.71156165      13.95317781
Pd      10.94514627       2.67589241      13.86947028
Pd      13.68121936       5.67672864      13.93600809
Pd       2.64561813       5.49863384      14.02399978
Pd       5.47156186       5.52430983      14.00491044
Pd       8.23798231       5.42471838      13.91737517
Pd      11.00470862       5.41940526      13.96695618
Pd       0.05718406       8.41393184      13.91901870
Pd       2.81147750       8.25485452      14.01005411
Pd       5.54614411       8.25405235      13.99488652
Pd       8.27738530       8.17940458      13.93759370
Pd      11.04185692       8.19096824      13.99932185
Pd      13.72728480      11.24088560      14.27028228
Pd       2.80575619      10.99074087      14.09421027
Pd       5.51851300      10.97735299      14.02285757
Pd       8.23347155      10.94925005      13.89157905
Pd      11.05940894      10.90077935      13.98686512
Pd      12.33962751       6.89299555      16.26605840
Pd       7.89921622       9.50485329      16.28182197
Pd       1.96211867      13.05267253      16.49284582
Pd       0.87809843       5.36535685      16.32703650
Pd      12.44807550       9.92155443      16.35984178
Pd       9.57925548       1.48553898      15.89091255
Pd       4.32250969       1.56076306      17.29349518
Pd       4.46327145       9.40365962      16.54179752
Pd       4.61602745      12.83298870      16.01614054
Pd       9.81955744      12.16035715      16.48151391
Pd       1.01919483       2.27768672      16.69505240
Pd       3.67255201       4.00236544      16.38982807
Pd      11.16229350       3.66381912      16.41628496
Pd       1.71108868       8.00063043      16.57019839
Pd       6.85094037       7.00532144      16.31688031
Pd       7.05738713       0.46161349      16.42081907
Pd       9.62133878       6.82177169      15.91938350
Pd       7.29778915       3.55428415      16.50067990
Pd      12.67799323      12.84164464      16.54829338
Pd       4.11690094       6.65759736      15.93811083
O        9.26679983       3.13936505      16.98504448
O        9.47444916      10.45140287      15.53617209
O       11.51317557      11.42136318      17.19894465
O       11.55331647       0.38704010      17.68520057
O       10.21286334       0.19045650      17.46808253
O        3.47632344       7.88864819      17.35944099
O        4.19819144       0.94131841      15.19777503
O        0.21241252       0.49545106      16.03819684
O        8.04315014      12.69450892      15.70840837
O        1.52832270      11.35069217      15.60770231
O        2.42366703       1.00850006      17.43121361
O        1.93987600       3.93778828      17.29461026
O        7.91787206       5.38357814      15.93809514
O        6.32013499       8.70286875      17.12813829
O        5.49221924       4.03079639      15.58197407
O       13.22812716       3.55524908      16.08830526
O       10.99850247       5.64683280      16.89714867
O       13.62229252       8.37176539      15.95586700
O        6.26830398       1.99295351      17.32334832
O        5.39979107      11.05521621      16.07299842
