115
Lattice="13.75323 0.0 0.0 0.0 13.75323 0.0 0.0 0.0 23.89" Properties=species:S:1:pos:R:3 entry_id=18 rank=8 energy=-572.9520263671875 parent_id=17 pbc="T T F"
Pd       0.00000000       0.00000000      10.00000000
Pd       2.75064538       0.00000000      10.00000000
Pd       5.50129076       0.00000000      10.00000000
Pd       8.25193614       0.00000000      10.00000000
Pd      11.00258152       0.00000000      10.00000000
Pd       0.00000000       2.75064538      10.00000000
Pd       2.75064538       2.75064538      10.00000000
Pd       5.50129076       2.75064538      10.00000000
Pd       8.25193614       2.75064538      10.00000000
Pd      11.00258152       2.75064538      10.00000000
Pd       0.00000000       5.50129076      10.00000000
Pd       2.75064538       5.50129076      10.00000000
Pd       5.50129076       5.50129076      10.00000000
Pd       8.25193614       5.50129076      10.00000000
Pd      11.00258152       5.50129076      10.00000000
Pd       0.00000000       8.25193614      10.00000000
Pd       2.75064538       8.25193614      10.00000000
Pd       5.50129076       8.25193614      10.00000000
Pd       8.25193614       8.25193614      10.00000000
Pd      11.00258152       8.25193614      10.00000000
Pd       0.00000000      11.00258152      10.00000000
Pd       2.75064538      11.00258152      10.00000000
Pd       5.50129076      11.00258152      10.00000000
Pd       8.25193614      11.00258152      10.00000000
Pd      11.00258152      11.00258152      10.00000000
Pd       1.37475477       1.37041956      11.94445571
Pd       4.11108762       1.38009434      11.92888539
Pd       6.87862267       1.41052889      11.92969335
Pd       9.57512057       1.39592898      11.89594876
Pd      12.38684272       1.37174114      11.92044161
Pd       1.35237753       4.13350588      11.96229159
Pd       4.08627267       4.13772733      11.95905828
Pd       6.83044319       4.13447328      11.95510658
Pd       9.56728621       4.13975942      11.94281254
Pd      12.36578195       4.13265160      11.93417299
Pd       1.37110082       6.89256210      11.94010419
Pd       4.13935064       6.87026939      11.96482277
Pd       6.87097415       6.85831372      11.95140951
Pd       9.64205429       6.82915781      11.94515418
Pd      12.39111484       6.85622887      11.94896407
Pd       1.39885352       9.65706275      11.99260595
Pd       4.11777592       9.66324146      11.95099537
Pd       6.89476706       9.64088005      11.95142944
Pd       9.64982872       9.59779534      11.89439304
Pd      12.42487279       9.60955999      11.94161946
Pd       1.37733382      12.37384047      12.02221119
Pd       4.11596383      12.35557216      11.97969051
Pd       6.86816975      12.39901143      11.97280504
Pd       9.63028672      12.36702810      11.91406436
Pd      12.39345083      12.35278011      12.02973385
Pd      13.74035655       0.04965399      13.97151474
Pd       2.72647971       0.00671958      13.96789202
Pd       5.62522106       0.04985315      13.83323761
Pd       8.35927424       0.06143021      13.94072690
Pd      11.02183112       0.03166168      14.03119766
Pd      13.74547859       2.79441795      13.88547277
Pd       2.69911886       2.73307652      13.98345513
Pd       5.46234260       2.71147397      13.92021778
Pd       8.22120421       2.77701854      13.95786290
Pd      10.96434181       2.79464711      13.94099252
Pd      13.66963756       5.53857821      13.99478971
Pd       2.62600834       5.44929059      13.98757965
Pd       5.42691695       5.51523590      14.01270750
Pd       8.24646141       5.50036289      13.91114200
Pd      10.98138780       5.52524344      14.03882285
Pd       0.03941569       8.27755933      13.88545555
Pd       2.81018749       8.20745615      14.00717668
Pd       5.54079618       8.23332451      14.00755871
Pd       8.27288679       8.20429939      13.95187334
Pd      11.00650859       8.23335422      14.02578727
Pd      13.73740019      11.07131164      14.21734871
Pd       2.84461360      10.93389326      14.08774115
Pd       5.54848454      10.95997271      14.01287965
Pd       8.26097146      10.97174652      13.87370252
Pd      11.04390098      10.97512258      13.97686473
Pd      12.38960735       6.90173847      16.34985293
Pd       7.67529432       9.54263402      16.26788113
Pd       2.05031895      12.71880847      16.55904116
Pd       1.07775812       5.37083880      16.38767142
Pd      12.29427601       9.87625334      16.33524299
Pd       9.56360537       1.71243788      15.98598315
Pd       4.25114388       1.37517546      17.41294527
Pd       4.37831139       9.37408601      16.50896253
Pd       4.68486973      12.75528235      16.03505055
Pd       9.73948073      12.15904574      16.46697212
Pd       1.06427226       1.86947617      16.67346390
Pd       3.48752374       3.82365934      16.40127795
Pd      12.28616480       4.14209801      16.29670343
Pd       1.63568166       8.09133846      16.54508688
Pd       6.77299095       6.96689556      16.30930712
Pd       7.04388401       0.49009267      16.46535811
Pd       9.61814835       5.18042721      16.49258854
Pd       6.97468122       3.48511094      16.53871219
Pd      12.61599629      12.63632542      16.54607686
Pd       3.99713505       6.55933078      15.97948144
O        8.86794802       3.25111768      17.13290140
O        9.30134828      10.41830001      15.60008118
O       11.34750294      11.33222978      17.24726749
O       11.57308654       0.35180780      17.56567112
O       10.22113991       0.23230831      17.36023433
O        3.38653835       7.88297392      17.33871129
O        4.18301720       0.80746860      15.26309315
O        0.33556842       0.07092299      16.01503486
O        8.02715139      12.77475209      15.67374584
O        1.54054287      11.07930293      15.60162420
O        2.43038399       0.67568636      17.56357855
O        1.74948799       3.66783749      17.26712905
O        7.71043577       5.26175326      15.88745873
O        6.18679166       8.62861311      17.14763659
O        5.27230370       3.94549213      15.57374546
O       13.21859003       2.56158033      15.77633283
O       11.35218358       5.53497666      17.28634352
O       13.55669993       8.42704439      15.89803595
O        6.14131562       1.91104711      17.44236332
O        5.44275456      10.97167582      16.08453816
