115
Lattice="13.75323 0.0 0.0 0.0 13.75323 0.0 0.0 0.0 23.89" Properties=species:S:1:pos:R:3 entry_id=30 rank=0 energy=-573.8716430664062 parent_id=15 pbc="T T F"
Pd       0.00000000       0.00000000      10.00000000
Pd       2.75064538       0.00000000      10.00000000
Pd       5.50129076       0.00000000      10.00000000
Pd       8.25193614       0.00000000      10.00000000
Pd      11.00258152       0.00000000      10.00000000
Pd       0.00000000       2.75064538      10.00000000
Pd       2.75064538       2.75064538      10.00000000
Pd       5.50129076       2.75064538      10.00000000
Pd       8.25193614       2.75064538      10.00000000
Pd      11.00258152       2.75064538      10.00000000
Pd       0.00000000       5.50129076      10.00000000
Pd       2.75064538       5.50129076      10.00000000
Pd       5.50129076       5.50129076      10.00000000
Pd       8.25193614       5.50129076      10.00000000
Pd      11.00258152       5.50129076      10.00000000
Pd       0.00000000       8.25193614      10.00000000
Pd       2.75064538       8.25193614      10.00000000
Pd       5.50129076       8.25193614      10.00000000
Pd       8.25193614       8.25193614      10.00000000
Pd      11.00258152       8.25193614      10.00000000
Pd       0.00000000      11.00258152      10.00000000
Pd       2.75064538      11.00258152      10.00000000
Pd       5.50129076      11.00258152      10.00000000
Pd       8.25193614      11.00258152      10.00000000
Pd      11.00258152      11.00258152      10.00000000
Pd       1.35339494       1.37391368      11.98215112
Pd       4.09521679       1.39452985      11.99734558
Pd       6.82993368       1.41230451      11.96744425
Pd       9.57512057       1.39592898      11.89594876
Pd      12.38684272       1.37174114      11.92044161
Pd       1.34975071       4.11934915      12.00318568
Pd       4.09304144       4.12871291      11.96357750
Pd       6.85685337       4.11833352      11.97133296
Pd       9.56728621       4.13975942      11.94281254
Pd      12.36578195       4.13265160      11.93417299
Pd       1.37110082       6.89256210      11.94010419
Pd       4.13935064       6.87026939      11.96482277
Pd       6.87097415       6.85831372      11.95140951
Pd       9.64205429       6.82915781      11.94515418
Pd      12.39111484       6.85622887      11.94896407
Pd       1.38771759       9.64387761      11.99757441
Pd       4.11777592       9.66324146      11.95099537
Pd       6.89476706       9.64088005      11.95142944
Pd       9.64982872       9.59779534      11.89439304
Pd      12.42487279       9.60955999      11.94161946
Pd       1.37055322      12.37419092      12.00134886
Pd       4.11125402      12.39413526      11.99680934
Pd       6.86816975      12.39901143      11.97280504
Pd       9.63028672      12.36702810      11.91406436
Pd      12.39883245      12.34822024      11.97725240
Pd      13.66343347      13.70428525      13.99892524
Pd       2.61250287       0.04907918      13.99387445
Pd       5.60961740       0.05817295      13.96463832
Pd       8.25845687      13.73976386      13.85636796
Pd      10.96050425      13.70930290      13.91824547
Pd      13.72131742       2.70174385      14.01012518
Pd       2.69241133       2.79231192      14.04142612
Pd       5.45310894       2.82306295      13.99353455
Pd       8.24990732       2.67701282      14.00768835
Pd      10.94621673       2.70263177      13.97807421
Pd      13.73114521       5.51255322      13.95739965
Pd       2.74733735       5.54418646      13.98979366
Pd       5.51193240       5.57345289      13.89628850
Pd       8.22511471       5.44815707      14.02858418
Pd      10.96982071       5.50983861      13.97476927
Pd       0.05778977       8.24969262      13.92657880
Pd       2.84183849       8.26514789      13.99863494
Pd       5.55514406       8.25446108      14.00423785
Pd       8.27861365       8.27287917      14.03304632
Pd      11.02415950       8.29342343      13.87620604
Pd      13.70926604      10.93514423      14.14617275
Pd       2.86398186      10.96661825      14.04748376
Pd       5.56998029      10.95162375      13.91037501
Pd       8.29510414      11.04435400      13.90166262
Pd      11.03217860      10.99934552      13.96089511
Pd       9.87272983       7.35835060      16.13853867
Pd       6.94758687       9.73488456      16.40972862
Pd       1.91062069      12.34994408      16.56697169
Pd       1.27361905       4.44495349      15.99097573
Pd      12.30912786       8.89734643      16.23576156
Pd       9.52354600       0.99906702      15.91303713
Pd       4.21499077       0.67499746      17.51835557
Pd       4.20874281       8.68047941      16.48367815
Pd       4.54775176      12.12008846      16.09080696
Pd       9.69510408      11.03303255      16.49128920
Pd       0.85728480       1.39420306      16.82045629
Pd       3.38227517       3.01183881      16.79089965
Pd      12.31323217       4.13448014      16.04714556
Pd       1.59335777       7.11907915      16.18003286
Pd       6.92529427       6.43084876      16.33095973
Pd       7.01545715      13.30823788      16.42235917
Pd       9.73714242       3.97579549      16.44390077
Pd       6.91380497       2.82424223      16.60744920
Pd      12.60796630      11.94016544      16.48073955
Pd       4.38897535       5.35602334      16.28123858
O        8.78145717       2.39929850      17.15762741
O        8.89054479       9.09316651      16.09379652
O       11.47503780      10.45032498      17.08214368
O       11.37217117      13.20209454      17.52026375
O       10.08627800      13.03410468      17.10075587
O        3.40979636       6.93494776      16.86324237
O        4.12713124       0.15025104      15.33336441
O        0.10897458      13.41728018      16.04047679
O        7.83388696      11.53362624      15.93559668
O        1.48875392      10.78082524      15.50174048
O        2.28896754       0.19734600      17.68492584
O        1.59051221       3.07859100      17.52681544
O        7.74560502       4.65499377      16.01804817
O        6.14042298       8.04654019      17.04470662
O        5.13943787       3.46616000      15.96510823
O       13.09966787       2.34880111      15.93656802
O       10.85386367       5.60791634      16.07826227
O       13.45283448       7.37588870      15.73606895
O        6.15010940       1.08822169      17.30275031
O        5.10447652      10.43025180      16.84403028
