115
Lattice="13.75323 0.0 0.0 0.0 13.75323 0.0 0.0 0.0 23.89" Properties=species:S:1:pos:R:3 entry_id=6 rank=24 energy=-572.7029418945312 parent_id=2 pbc="T T F"
Pd       0.00000000       0.00000000      10.00000000
Pd       2.75064538       0.00000000      10.00000000
Pd       5.50129076       0.00000000      10.00000000
Pd       8.25193614       0.00000000      10.00000000
Pd      11.00258152       0.00000000      10.00000000
Pd       0.00000000       2.75064538      10.00000000
Pd       2.75064538       2.75064538      10.00000000
Pd       5.50129076       2.75064538      10.00000000
Pd       8.25193614       2.75064538      10.00000000
Pd      11.00258152       2.75064538      10.00000000
Pd       0.00000000       5.50129076      10.00000000
Pd       2.75064538       5.50129076      10.00000000
Pd       5.50129076       5.50129076      10.00000000
Pd       8.25193614       5.50129076      10.00000000
Pd      11.00258152       5.50129076      10.00000000
Pd       0.00000000       8.25193614      10.00000000
Pd       2.75064538       8.25193614      10.00000000
Pd       5.50129076       8.25193614      10.00000000
Pd       8.25193614       8.25193614      10.00000000
Pd      11.00258152       8.25193614      10.00000000
Pd       0.00000000      11.00258152      10.00000000
Pd       2.75064538      11.00258152      10.00000000
Pd       5.50129076      11.00258152      10.00000000
Pd       8.25193614      11.00258152      10.00000000
Pd      11.00258152      11.00258152      10.00000000
Pd       1.35864434       1.43091350      11.98486038
Pd       4.11188344       1.39797194      11.92660177
Pd       6.85815709       1.38455210      11.94926267
Pd       9.57512057       1.39592898      11.89594876
Pd      12.38684272       1.37174114      11.92044161
Pd       1.35609581       4.12476602      12.00813195
Pd       4.08409654       4.14718727      11.96911225
Pd       6.82357743       4.12787901      11.97184576
Pd       9.56728621       4.13975942      11.94281254
Pd      12.36578195       4.13265160      11.93417299
Pd       1.37110082       6.89256210      11.94010419
Pd       4.13935064       6.87026939      11.96482277
Pd       6.87097415       6.85831372      11.95140951
Pd       9.64205429       6.82915781      11.94515418
Pd      12.39111484       6.85622887      11.94896407
Pd       1.38541563       9.68071607      11.98335169
Pd       4.11777592       9.66324146      11.95099537
Pd       6.89476706       9.64088005      11.95142944
Pd       9.64982872       9.59779534      11.89439304
Pd      12.42487279       9.60955999      11.94161946
Pd       1.36355449      12.43279370      12.02379386
Pd       4.12005220      12.37108649      11.96603932
Pd       6.86816975      12.39901143      11.97280504
Pd       9.63028672      12.36702810      11.91406436
Pd      12.39076917      12.35907055      12.03123725
Pd      13.74276904       0.21312230      14.00741121
Pd       2.78230574       0.03192601      13.96360066
Pd       5.53437974       0.01136412      13.95445178
Pd       8.31173068       0.00899792      13.91905564
Pd      11.02441029      13.69399619      14.02856273
Pd      13.63990028       2.94601341      14.09537023
Pd       2.65844139       2.80671432      14.08102247
Pd       5.51046764       2.74973423      13.93021806
Pd       8.24535845       2.74275543      13.94351419
Pd      10.96400801       2.67079415      13.86655230
Pd      13.70070771       5.64468829      13.88319595
Pd       2.67043788       5.51496020      13.99173287
Pd       5.45334287       5.56571934      14.07763224
Pd       8.22827032       5.46104592      13.93275248
Pd      10.98695444       5.41567474      14.01875554
Pd       0.08667602       8.39075378      13.97926300
Pd       2.81412486       8.26340904      13.96206021
Pd       5.53564529       8.26641241      14.00846046
Pd       8.26251353       8.21105523      13.89029404
Pd      11.06685794       8.22335508      13.97374663
Pd      13.69946770      11.19969981      14.17767810
Pd       2.80883564      11.03883424      14.02120809
Pd       5.51452005      10.99302836      13.99584086
Pd       8.21335977      10.95642293      13.91369745
Pd      11.04553524      10.91942331      13.96569796
Pd      12.56583360       6.96927775      16.08673204
Pd       8.08184134       9.40116990      16.33053484
Pd       2.03461525      12.97050415      16.47490601
Pd       0.98121139       5.15992233      16.17032192
Pd      12.48038986       9.91448854      16.36118238
Pd       9.55480505       1.45228372      15.88300221
Pd       4.38081256       1.49154441      17.12361786
Pd       4.67769378       9.41171446      16.61971031
Pd       4.66927539      12.64284950      16.29274205
Pd       9.83144731      12.14247326      16.47178188
Pd       1.04799550       2.18376289      16.70729826
Pd       3.70102223       4.03543826      16.44404881
Pd      11.21258192       3.51425200      16.47444652
Pd       2.11980675       9.46193015      16.39774263
Pd       6.87352236       6.95364684      16.28327467
Pd       7.04038941       0.39419029      16.38529208
Pd       9.63147474       7.05070000      15.95093662
Pd       7.33171018       3.55107098      16.48994823
Pd      12.67806830      12.79691824      16.54275521
Pd       3.93891333       6.74895128      15.97317321
O        9.29671623       3.10055298      17.00203946
O        9.54711186      10.43828935      15.50161909
O       11.50310092      11.39246482      17.21106838
O       11.55960161       0.38382804      17.64983792
O       10.21383148       0.17227422      17.46263992
O        3.28326700       8.11761881      17.25710506
O        4.08075825       1.45899125      14.93502010
O        0.25926751       0.40113897      16.03293236
O        8.05646853      12.64303311      15.66403911
O        1.49969806      11.21049152      15.63889458
O        2.50271947       0.92885297      17.35763762
O        1.96716353       3.84416170      17.33986798
O        7.98042228       5.34749315      15.94078236
O        6.49845570       8.63819284      17.20478907
O        5.50905934       4.07305911      15.60504505
O       13.23400836       3.41734142      16.10987589
O       11.15146675       5.59746795      16.16405629
O        0.07163318       8.50247061      16.05485692
O        6.30538669       1.96352741      17.25038136
O        5.67351621      10.97402520      16.02451356
