115
Lattice="13.75323 0.0 0.0 0.0 13.75323 0.0 0.0 0.0 23.89" Properties=species:S:1:pos:R:3 entry_id=32 rank=4 energy=-573.1121826171875 parent_id=24 pbc="T T F"
Pd       0.00000000       0.00000000      10.00000000
Pd       2.75064538       0.00000000      10.00000000
Pd       5.50129076       0.00000000      10.00000000
Pd       8.25193614       0.00000000      10.00000000
Pd      11.00258152       0.00000000      10.00000000
Pd       0.00000000       2.75064538      10.00000000
Pd       2.75064538       2.75064538      10.00000000
Pd       5.50129076       2.75064538      10.00000000
Pd       8.25193614       2.75064538      10.00000000
Pd      11.00258152       2.75064538      10.00000000
Pd       0.00000000       5.50129076      10.00000000
Pd       2.75064538       5.50129076      10.00000000
Pd       5.50129076       5.50129076      10.00000000
Pd       8.25193614       5.50129076      10.00000000
Pd      11.00258152       5.50129076      10.00000000
Pd       0.00000000       8.25193614      10.00000000
Pd       2.75064538       8.25193614      10.00000000
Pd       5.50129076       8.25193614      10.00000000
Pd       8.25193614       8.25193614      10.00000000
Pd      11.00258152       8.25193614      10.00000000
Pd       0.00000000      11.00258152      10.00000000
Pd       2.75064538      11.00258152      10.00000000
Pd       5.50129076      11.00258152      10.00000000
Pd       8.25193614      11.00258152      10.00000000
Pd      11.00258152      11.00258152      10.00000000
Pd       1.36398643       1.38603580      11.93234673
Pd       4.11359943       1.38063724      11.92934352
Pd       6.88502501       1.39664270      11.94061572
Pd       9.57512057       1.39592898      11.89594876
Pd      12.38684272       1.37174114      11.92044161
Pd       1.35028703       4.14461439      11.96983601
Pd       4.07851173       4.13608300      11.95693021
Pd       6.83323164       4.12118327      11.95022961
Pd       9.56728621       4.13975942      11.94281254
Pd      12.36578195       4.13265160      11.93417299
Pd       1.37110082       6.89256210      11.94010419
Pd       4.13935064       6.87026939      11.96482277
Pd       6.87097415       6.85831372      11.95140951
Pd       9.64205429       6.82915781      11.94515418
Pd      12.39111484       6.85622887      11.94896407
Pd       1.40302564       9.66145053      11.99142487
Pd       4.11777592       9.66324146      11.95099537
Pd       6.89476706       9.64088005      11.95142944
Pd       9.64982872       9.59779534      11.89439304
Pd      12.42487279       9.60955999      11.94161946
Pd       1.36935786      12.37171287      12.00445950
Pd       4.11186074      12.35913405      11.96598045
Pd       6.86816975      12.39901143      11.97280504
Pd       9.63028672      12.36702810      11.91406436
Pd      12.40040196      12.36306161      12.00675491
Pd      13.70886927       0.06736999      13.96104095
Pd       2.67126499       0.00443956      13.91409103
Pd       5.63329051       0.01307162      13.83328720
Pd       8.31881125      13.74917628      14.03500622
Pd      10.98567184       0.03876068      13.99476277
Pd      13.72429277       2.80195453      13.89278909
Pd       2.67887750       2.74637025      13.97525483
Pd       5.45023865       2.70241181      13.92104908
Pd       8.20145234       2.75076392      13.96751881
Pd      10.94200661       2.79413879      13.94762889
Pd      13.66590559       5.54063184      13.98655112
Pd       2.62876339       5.48195807      14.01513298
Pd       5.44337862       5.53874694      13.94698594
Pd       8.25767470       5.50417992      13.89337870
Pd      10.98220889       5.53679245      14.03300845
Pd       0.04631375       8.27878624      13.87953637
Pd       2.81086743       8.23468009      13.99981756
Pd       5.53005913       8.30232866      13.98797937
Pd       8.29261078       8.23401868      13.97750269
Pd      11.02053339       8.25892099      14.02983245
Pd       0.02860555      11.09105255      14.20787126
Pd       2.88431450      10.95630893      14.09788256
Pd       5.54735872      11.00954014      14.01485650
Pd       8.32904066      10.93541218      13.86891210
Pd      11.06931709      11.01183014      13.95628631
Pd      12.42192214       6.94368623      16.33850507
Pd       7.00455623      10.81048004      16.45590045
Pd       2.06869843      12.81767808      16.55227365
Pd       1.03318344       5.39726808      16.38778499
Pd      12.32726729       9.83249388      16.22767824
Pd       9.51589607       1.80469409      16.06508627
Pd       4.25178787       1.54320036      17.47747602
Pd       4.36083737       9.59206933      16.93916075
Pd       4.67665092      12.85802457      16.18565521
Pd       9.67825902      12.09841347      16.41572130
Pd       1.04521077       1.92930608      16.65254083
Pd       3.47314667       3.90280535      16.36300411
Pd      12.22714551       4.18213870      16.29612586
Pd       1.75431303       8.08313137      16.55424086
Pd       6.88585146       7.31591582      16.22623132
Pd       6.98821813       0.64678330      16.58277763
Pd       9.56033930       5.40193138      16.47676358
Pd       6.95201427       3.67849679      16.50141121
Pd      12.61483424      12.62084717      16.43146925
Pd       4.15620641       6.66880469      15.91277978
O        8.83745544       3.44074497      17.08731224
O        8.82018527      10.35464889      15.78308473
O       11.33897859      11.28193093      17.07268139
O       11.57202838       0.30507036      17.47710568
O       10.22718520       0.19514180      17.24871471
O        3.50634117       7.86739096      17.34223624
O        4.18300285       0.69066426      15.08611618
O        0.33127914       0.11229099      16.00154902
O        7.83407696      12.75566347      15.94253927
O        1.58316711      11.16222575      15.60109815
O        2.44772217       0.78658130      17.54503952
O        1.74746465       3.71728417      17.24832715
O        7.65884348       5.50114874      15.86308294
O        6.34369493       8.99710599      17.02334345
O        5.25035477       4.04013598      15.51347031
O       13.17077206       2.60276492      15.78343504
O       11.31866039       5.61554323      17.25921546
O       13.67032228       8.41411735      15.90371860
O        6.12137992       2.13803688      17.46917385
O        5.25504661      11.35008848      17.25571741
