115
Lattice="13.75323 0.0 0.0 0.0 13.75323 0.0 0.0 0.0 23.89" Properties=species:S:1:pos:R:3 entry_id=34 rank=1 energy=-573.86865234375 parent_id=33 pbc="T T F"
Pd       0.00000000       0.00000000      10.00000000
Pd       2.75064538       0.00000000      10.00000000
Pd       5.50129076       0.00000000      10.00000000
Pd       8.25193614       0.00000000      10.00000000
Pd      11.00258152       0.00000000      10.00000000
Pd       0.00000000       2.75064538      10.00000000
Pd       2.75064538       2.75064538      10.00000000
Pd       5.50129076       2.75064538      10.00000000
Pd       8.25193614       2.75064538      10.00000000
Pd      11.00258152       2.75064538      10.00000000
Pd       0.00000000       5.50129076      10.00000000
Pd       2.75064538       5.50129076      10.00000000
Pd       5.50129076       5.50129076      10.00000000
Pd       8.25193614       5.50129076      10.00000000
Pd      11.00258152       5.50129076      10.00000000
Pd       0.00000000       8.25193614      10.00000000
Pd       2.75064538       8.25193614      10.00000000
Pd       5.50129076       8.25193614      10.00000000
Pd       8.25193614       8.25193614      10.00000000
Pd      11.00258152       8.25193614      10.00000000
Pd       0.00000000      11.00258152      10.00000000
Pd       2.75064538      11.00258152      10.00000000
Pd       5.50129076      11.00258152      10.00000000
Pd       8.25193614      11.00258152      10.00000000
Pd      11.00258152      11.00258152      10.00000000
Pd       1.35851090       1.36811177      11.98926709
Pd       4.09975984       1.38906647      11.99876580
Pd       6.83329578       1.40780578      11.96777204
Pd       9.57512057       1.39592898      11.89594876
Pd      12.38684272       1.37174114      11.92044161
Pd       1.34509562       4.11885154      12.01348520
Pd       4.09308713       4.12664827      11.96258240
Pd       6.85863720       4.11493206      11.97285220
Pd       9.56728621       4.13975942      11.94281254
Pd      12.36578195       4.13265160      11.93417299
Pd       1.37110082       6.89256210      11.94010419
Pd       4.13935064       6.87026939      11.96482277
Pd       6.87097415       6.85831372      11.95140951
Pd       9.64205429       6.82915781      11.94515418
Pd      12.39111484       6.85622887      11.94896407
Pd       1.39224668       9.64086699      11.99045395
Pd       4.11777592       9.66324146      11.95099537
Pd       6.89476706       9.64088005      11.95142944
Pd       9.64982872       9.59779534      11.89439304
Pd      12.42487279       9.60955999      11.94161946
Pd       1.37818961      12.37348212      12.00170145
Pd       4.11433871      12.39325179      12.00201763
Pd       6.86816975      12.39901143      11.97280504
Pd       9.63028672      12.36702810      11.91406436
Pd      12.40349634      12.34866129      11.97214047
Pd      13.66574393      13.69077068      14.00398850
Pd       2.62003431       0.03748262      14.00919589
Pd       5.61883236       0.05329055      13.97108778
Pd       8.25800436       2.66619919      14.01199231
Pd      10.96545784      13.70989739      13.90082689
Pd      13.72827794       2.68682034      14.00906169
Pd       2.70514843       2.77946950      14.04171229
Pd       5.46057497       2.81898870      13.99083510
Pd       8.22577362       5.43419528      14.03225222
Pd      10.94880589       2.69434451      13.97971763
Pd      13.72347760       5.50105872      13.98169020
Pd       2.75290747       5.53504725      13.99340366
Pd       5.51409315       5.57460473      13.89562433
Pd       8.28101417       8.25919099      14.03962394
Pd      10.96706416       5.49870969      13.97770753
Pd       0.06475116       8.25159298      13.91940173
Pd       2.84182295       8.26101125      14.00471087
Pd       5.55295243       8.25590976      13.99922299
Pd       8.30902611      11.03426219      13.90272130
Pd      11.02769321       8.29252291      13.87689921
Pd      13.73137228      10.92917515      14.11263216
Pd       2.88186741      10.95986989      14.04822163
Pd       5.58697121      10.94867374      13.91041915
Pd       8.26428981      13.73433405      13.86089632
Pd      11.04564878      11.00176167      13.95551709
Pd       9.89618648       7.29194292      16.13212475
Pd       6.99266873       9.68984814      16.41729979
Pd       1.93877653      12.29326125      16.55896506
Pd       1.29984671       4.38904520      15.98948162
Pd      12.34989678       8.76624900      16.23646731
Pd       9.56124355       0.94013433      15.93167273
Pd       4.25023494       0.63269829      17.50575702
Pd       4.25271348       8.64603188      16.49062952
Pd       4.58466425      12.07544911      16.10393118
Pd       9.75378252      10.95425694      16.48857050
Pd       0.88941952       1.33300876      16.81586253
Pd       3.41937530       2.97436063      16.79217183
Pd      12.33560114       4.07359719      16.05071590
Pd       1.63436046       7.05858423      16.17715493
Pd       6.96504927       6.38241160      16.35044792
Pd       7.06396106      13.25863038      16.41748033
Pd       9.76538386       3.91166148      16.45879736
Pd       6.94804827       2.77857426      16.61258902
Pd      12.65823113      11.85051205      16.47703139
Pd       4.42675890       5.32144921      16.28932461
O        8.80980497       2.33665684      17.17248617
O        8.92723458       9.03179553      16.08921214
O       11.53704597      10.34212652      17.06056441
O       11.42642155      13.10345186      17.52913367
O       10.14480553      12.94796444      17.09949398
O        3.45036856       6.90278959      16.86786106
O        4.14556993       0.10300063      15.34818440
O        0.13069390      13.35605619      16.03824584
O        7.89262234      11.48256024      15.94473799
O        1.49598868      10.73221440      15.48777627
O        2.32639460       0.14068769      17.67670274
O        1.62547182       3.01720778      17.52101341
O        7.78161757       4.60767746      16.02515330
O        6.18144698       8.00285546      17.05329799
O        5.17644411       3.43257727      15.97212543
O       13.13180851       2.29197861      15.93665966
O       10.87816284       5.54378589      16.08395858
O       13.49318931       7.24788118      15.68738969
O        6.18779084       1.03764052      17.29116004
O        5.15567959      10.39052506      16.85805382
