115
Lattice="13.75323 0.0 0.0 0.0 13.75323 0.0 0.0 0.0 23.89" Properties=species:S:1:pos:R:3 entry_id=19 rank=17 energy=-572.8662719726562 parent_id=15 pbc="T T F"
Pd       0.00000000       0.00000000      10.00000000
Pd       2.75064538       0.00000000      10.00000000
Pd       5.50129076       0.00000000      10.00000000
Pd       8.25193614       0.00000000      10.00000000
Pd      11.00258152       0.00000000      10.00000000
Pd       0.00000000       2.75064538      10.00000000
Pd       2.75064538       2.75064538      10.00000000
Pd       5.50129076       2.75064538      10.00000000
Pd       8.25193614       2.75064538      10.00000000
Pd      11.00258152       2.75064538      10.00000000
Pd       0.00000000       5.50129076      10.00000000
Pd       2.75064538       5.50129076      10.00000000
Pd       5.50129076       5.50129076      10.00000000
Pd       8.25193614       5.50129076      10.00000000
Pd      11.00258152       5.50129076      10.00000000
Pd       0.00000000       8.25193614      10.00000000
Pd       2.75064538       8.25193614      10.00000000
Pd       5.50129076       8.25193614      10.00000000
Pd       8.25193614       8.25193614      10.00000000
Pd      11.00258152       8.25193614      10.00000000
Pd       0.00000000      11.00258152      10.00000000
Pd       2.75064538      11.00258152      10.00000000
Pd       5.50129076      11.00258152      10.00000000
Pd       8.25193614      11.00258152      10.00000000
Pd      11.00258152      11.00258152      10.00000000
Pd       1.37850359       1.39111436      11.95198713
Pd       4.11257309       1.38784197      11.92044857
Pd       6.86425531       1.38324551      11.95119433
Pd       9.57512057       1.39592898      11.89594876
Pd      12.38684272       1.37174114      11.92044161
Pd       1.35662354       4.14712226      12.01206684
Pd       4.06183708       4.14388802      11.95539727
Pd       6.81777593       4.11077417      11.95625549
Pd       9.56728621       4.13975942      11.94281254
Pd      12.36578195       4.13265160      11.93417299
Pd       1.37110082       6.89256210      11.94010419
Pd       4.13935064       6.87026939      11.96482277
Pd       6.87097415       6.85831372      11.95140951
Pd       9.64205429       6.82915781      11.94515418
Pd      12.39111484       6.85622887      11.94896407
Pd       1.39575540       9.65838606      11.98499238
Pd       4.11777592       9.66324146      11.95099537
Pd       6.89476706       9.64088005      11.95142944
Pd       9.64982872       9.59779534      11.89439304
Pd      12.42487279       9.60955999      11.94161946
Pd       1.38270609      12.38015635      12.01784194
Pd       4.12060599      12.37307990      11.96838564
Pd       6.86816975      12.39901143      11.97280504
Pd       9.63028672      12.36702810      11.91406436
Pd      12.38834696      12.34660181      12.02570635
Pd      13.74584714       0.05245422      13.93815835
Pd       2.78332042      13.75188145      13.97800337
Pd       5.53922866       0.03614748      13.94870511
Pd       8.31848929       0.05874620      13.95002587
Pd      11.00229871       0.01230485      14.02511131
Pd      13.71531718       2.80510605      13.91282143
Pd       2.67726221       2.80221598      14.02344637
Pd       5.47798468       2.76351670      13.93993791
Pd       8.20074189       2.78427670      13.95089393
Pd      10.93705658       2.77053794      13.93537473
Pd      13.65248942       5.54524464      13.99052890
Pd       2.60674983       5.54667103      14.10612956
Pd       5.41111501       5.50241160      13.92187850
Pd       8.22493692       5.50464626      13.89330429
Pd      10.96085384       5.50855117      14.03922694
Pd       0.06782888       8.27887090      13.89276977
Pd       2.86472222       8.23838181      13.98894032
Pd       5.58176907       8.22764264      14.01368652
Pd       8.29884231       8.21552292      13.97187161
Pd      11.02930520       8.21581263      14.02137788
Pd      13.72495246      11.06947659      14.20207856
Pd       2.83375409      10.95510768      14.06780466
Pd       5.52979511      10.99795007      13.95095439
Pd       8.24006850      10.98930374      13.85038796
Pd      11.03617285      10.95306429      13.97657492
Pd      12.32148919       6.90716482      16.35576813
Pd       7.75618382       9.64744124      16.27669950
Pd       2.03524416      12.76540716      16.49472421
Pd       0.86825432       5.33517102      16.44133520
Pd      12.28894951       9.85818899      16.33271966
Pd       9.49716710       1.75002570      16.00543824
Pd       4.15108986       1.43542662      17.23874654
Pd       4.45087115       9.40427576      16.34853326
Pd       4.66938024      12.75464607      16.30324870
Pd       9.72827422      12.19905419      16.47517896
Pd       0.88282561       1.85642099      16.67274140
Pd       3.20423575       3.86707326      16.55145747
Pd      12.11488282       4.11733696      16.31515838
Pd       1.67496553       7.99866149      16.41656885
Pd       6.85032394       7.11689134      16.38356458
Pd       6.96421090       0.55880629      16.41854399
Pd       9.51845742       5.26386467      16.48939296
Pd       6.81156548       3.65121146      16.51102735
Pd      12.56211326      12.62177075      16.52452974
Pd       4.29133827       6.27606567      16.28318145
O        8.71998189       3.31130792      17.03106907
O        9.36883945      10.49144321      15.53241348
O       11.32248292      11.31110917      17.24630535
O       11.55036017       0.36012078      17.56418186
O       10.19517902       0.25833516      17.37630261
O        3.48159745       7.85706608      17.09506408
O        4.03986904       1.47537634      14.92696792
O        0.26447426       0.05849416      15.97656600
O        7.99592025      12.82685278      15.71300311
O        1.53071166      11.10886190      15.57225629
O        2.35211271       0.71671355      17.49083440
O        1.46546799       3.62974431      17.37769130
O        7.62766179       5.37926247      15.86326585
O        6.24918391       8.78240782      17.18036463
O        5.01169161       4.38061686      15.83529148
O       13.02259025       2.52656980      15.76224670
O       11.25370053       5.56482477      17.29780018
O       13.55100739       8.38793158      15.90842433
O        6.02266307       2.01348044      17.30355655
O        5.49968022      11.02145632      15.96951180
