115
Lattice="13.75323 0.0 0.0 0.0 13.75323 0.0 0.0 0.0 23.89" Properties=species:S:1:pos:R:3 entry_id=25 rank=22 energy=-572.80615234375 parent_id=24 pbc="T T F"
Pd       0.00000000       0.00000000      10.00000000
Pd       2.75064538       0.00000000      10.00000000
Pd       5.50129076       0.00000000      10.00000000
Pd       8.25193614       0.00000000      10.00000000
Pd      11.00258152       0.00000000      10.00000000
Pd       0.00000000       2.75064538      10.00000000
Pd       2.75064538       2.75064538      10.00000000
Pd       5.50129076       2.75064538      10.00000000
Pd       8.25193614       2.75064538      10.00000000
Pd      11.00258152       2.75064538      10.00000000
Pd       0.00000000       5.50129076      10.00000000
Pd       2.75064538       5.50129076      10.00000000
Pd       5.50129076       5.50129076      10.00000000
Pd       8.25193614       5.50129076      10.00000000
Pd      11.00258152       5.50129076      10.00000000
Pd       0.00000000       8.25193614      10.00000000
Pd       2.75064538       8.25193614      10.00000000
Pd       5.50129076       8.25193614      10.00000000
Pd       8.25193614       8.25193614      10.00000000
Pd      11.00258152       8.25193614      10.00000000
Pd       0.00000000      11.00258152      10.00000000
Pd       2.75064538      11.00258152      10.00000000
Pd       5.50129076      11.00258152      10.00000000
Pd       8.25193614      11.00258152      10.00000000
Pd      11.00258152      11.00258152      10.00000000
Pd       1.38194521       1.39433781      11.95249007
Pd       4.12197480       1.39143106      11.91652473
Pd       6.87679973       1.39019655      11.95858068
Pd       9.57512057       1.39592898      11.89594876
Pd      12.38684272       1.37174114      11.92044161
Pd       1.34990557       4.14267106      12.01896533
Pd       4.06179090       4.13908291      11.96155549
Pd       6.82680488       4.10759876      11.97266423
Pd       9.56728621       4.13975942      11.94281254
Pd      12.36578195       4.13265160      11.93417299
Pd       1.37110082       6.89256210      11.94010419
Pd       4.13935064       6.87026939      11.96482277
Pd       6.87097415       6.85831372      11.95140951
Pd       9.64205429       6.82915781      11.94515418
Pd      12.39111484       6.85622887      11.94896407
Pd       1.39089770       9.65565359      11.98638624
Pd       4.11777592       9.66324146      11.95099537
Pd       6.89476706       9.64088005      11.95142944
Pd       9.64982872       9.59779534      11.89439304
Pd      12.42487279       9.60955999      11.94161946
Pd       1.39674467      12.37531955      12.01808169
Pd       4.13005742      12.37654170      11.96164752
Pd       6.86816975      12.39901143      11.97280504
Pd       9.63028672      12.36702810      11.91406436
Pd      12.41829526      12.34403248      12.01019925
Pd       0.02578564       0.05649491      13.93882997
Pd       2.81167009      13.75221321      13.96078662
Pd       5.55612748       0.04933160      13.96797896
Pd       8.32797392       0.04891469      13.93845544
Pd      11.02965253      13.71976494      13.96127232
Pd      13.69727580       2.81410994      13.93149434
Pd       2.67358919       2.79522809      14.03792815
Pd       5.50215309       2.76929960      13.94459065
Pd       8.21762155       2.76385710      14.04785394
Pd      10.91537007       2.70508569      13.95356900
Pd      13.62031637       5.55441150      13.98773519
Pd       2.56337395       5.53069208      14.10515746
Pd       5.38830979       5.51663971      13.92140829
Pd       8.21299603       5.50583813      13.89875357
Pd      10.94310359       5.45680446      14.04925480
Pd       0.04594352       8.29128787      13.88068650
Pd       2.83793594       8.21846755      13.97898263
Pd       5.55175866       8.26425085      14.01886074
Pd       8.26504387       8.23670159      14.00993441
Pd      10.99049880       8.19214750      14.01310328
Pd       0.01616916      11.07801825      14.25727429
Pd       2.84910518      10.93919940      14.04511596
Pd       5.55171467      11.03844273      13.95206942
Pd       8.28989186      10.98879498      13.84330377
Pd      11.06906996      10.94823379      13.94824803
Pd      12.20215912       6.80031861      16.37657143
Pd       7.48154764       9.84528824      16.31427349
Pd       2.19004041      12.80272024      16.50394488
Pd       0.74842054       5.26954896      16.43931466
Pd      12.19661510       9.82041057      16.26128545
Pd       9.59310610       2.13571154      16.35527161
Pd       4.21116769       1.58117068      17.33898694
Pd       4.28618449       9.52422083      16.29578256
Pd       4.83449525      12.94066356      16.42709550
Pd       9.73361795      12.31242505      16.42726817
Pd       0.92972939       1.83871461      16.68024644
Pd       3.17537312       3.93043301      16.55205326
Pd      12.01980410       3.97027318      16.37255631
Pd       1.52751804       7.96378269      16.36593474
Pd       6.71538367       7.29834640      16.44090857
Pd       7.05710285       0.87100822      16.46652952
Pd       9.45140614       5.49921270      16.50420020
Pd       6.77109787       3.89917285      16.56148330
Pd      12.63705546      12.60413213      16.43915252
Pd       4.19352615       6.38584426      16.24429522
O        8.65433122       3.67217755      17.19100776
O        9.15041396      10.58604008      15.64930169
O       11.31849934      11.34673826      17.12322141
O       11.68606152       0.37424640      17.47561719
O       10.33711421       0.35703197      17.23898953
O        3.33746987       7.95295802      17.03251604
O        4.07284648       1.49346367      14.88056386
O        0.38576393       0.02465304      15.96932507
O        8.03716241      13.10177214      15.79506161
O        1.63370645      11.14345595      15.60765300
O        2.44772175       0.76535811      17.50754327
O        1.45406479       3.62238833      17.39283733
O        7.56401592       5.62437821      15.86028428
O        6.01546245       8.92126684      17.24558202
O        4.96369474       4.51513777      15.83817364
O       13.03530935       2.45691237      15.77984925
O       11.18670093       5.44781958      17.35263941
O       13.39101500       8.29254827      15.87917090
O        6.04793910       2.25604186      17.39974052
O        5.43298244      11.12534804      15.98073796
