115
Lattice="13.75323 0.0 0.0 0.0 13.75323 0.0 0.0 0.0 23.89" Properties=species:S:1:pos:R:3 entry_id=8 rank=11 energy=-572.9053955078125 parent_id=7 pbc="T T F"
Pd       0.00000000       0.00000000      10.00000000
Pd       2.75064538       0.00000000      10.00000000
Pd       5.50129076       0.00000000      10.00000000
Pd       8.25193614       0.00000000      10.00000000
Pd      11.00258152       0.00000000      10.00000000
Pd       0.00000000       2.75064538      10.00000000
Pd       2.75064538       2.75064538      10.00000000
Pd       5.50129076       2.75064538      10.00000000
Pd       8.25193614       2.75064538      10.00000000
Pd      11.00258152       2.75064538      10.00000000
Pd       0.00000000       5.50129076      10.00000000
Pd       2.75064538       5.50129076      10.00000000
Pd       5.50129076       5.50129076      10.00000000
Pd       8.25193614       5.50129076      10.00000000
Pd      11.00258152       5.50129076      10.00000000
Pd       0.00000000       8.25193614      10.00000000
Pd       2.75064538       8.25193614      10.00000000
Pd       5.50129076       8.25193614      10.00000000
Pd       8.25193614       8.25193614      10.00000000
Pd      11.00258152       8.25193614      10.00000000
Pd       0.00000000      11.00258152      10.00000000
Pd       2.75064538      11.00258152      10.00000000
Pd       5.50129076      11.00258152      10.00000000
Pd       8.25193614      11.00258152      10.00000000
Pd      11.00258152      11.00258152      10.00000000
Pd       1.35968930       1.42303679      11.97706229
Pd       4.10837327       1.39325712      11.92135677
Pd       6.85636325       1.37925246      11.94167481
Pd       9.57512057       1.39592898      11.89594876
Pd      12.38684272       1.37174114      11.92044161
Pd       1.35738780       4.12853089      12.01240054
Pd       4.08270837       4.14513539      11.96543191
Pd       6.82870370       4.12177857      11.96672475
Pd       9.56728621       4.13975942      11.94281254
Pd      12.36578195       4.13265160      11.93417299
Pd       1.37110082       6.89256210      11.94010419
Pd       4.13935064       6.87026939      11.96482277
Pd       6.87097415       6.85831372      11.95140951
Pd       9.64205429       6.82915781      11.94515418
Pd      12.39111484       6.85622887      11.94896407
Pd       1.39779165       9.68504629      12.00114622
Pd       4.11777592       9.66324146      11.95099537
Pd       6.89476706       9.64088005      11.95142944
Pd       9.64982872       9.59779534      11.89439304
Pd      12.42487279       9.60955999      11.94161946
Pd       1.37105576      12.41422389      12.04304840
Pd       4.11444286      12.36497843      11.96413462
Pd       6.86816975      12.39901143      11.97280504
Pd       9.63028672      12.36702810      11.91406436
Pd      12.40434290      12.35179911      12.04521347
Pd      13.74274290       0.21420412      13.99906372
Pd       2.78473640       0.01659603      13.95204346
Pd       5.53461857       0.00824457      13.94356176
Pd       8.30906968      13.75127797      13.91599565
Pd      11.02515206      13.68641884      14.02869615
Pd      13.62327218       2.94674339      14.08331547
Pd       2.64551554       2.80300304      14.06900409
Pd       5.49947548       2.73369091      13.92020270
Pd       8.23189504       2.73169205      13.93822712
Pd      10.95012151       2.66122328      13.86319997
Pd      13.72357589       5.62877679      13.91320792
Pd       2.69024509       5.51885963      13.99947731
Pd       5.48322695       5.53857262      14.03658267
Pd       8.23881683       5.44765594      13.94099683
Pd      10.99359948       5.40502266      14.00546755
Pd       0.05901874       8.39925771      13.94185965
Pd       2.80315923       8.26607180      14.01202225
Pd       5.52818384       8.26212036      13.99773562
Pd       8.24641716       8.20482356      13.89060659
Pd      11.03159531       8.21846949      13.96391477
Pd      13.74055975      11.21755531      14.26460704
Pd       2.82738471      10.99117854      14.12163487
Pd       5.52525515      10.99464835      13.96853587
Pd       8.23501605      10.95123747      13.91401754
Pd      11.07332546      10.91413423      13.98033046
Pd      12.44307826       6.92630672      16.06746207
Pd       8.04826973       9.41942907      16.31510914
Pd       1.98805606      13.05241390      16.46177038
Pd       1.05895912       5.47351661      16.29203899
Pd      12.49073214       9.97073501      16.40950765
Pd       9.52344374       1.43584795      15.87491594
Pd       4.35157875       1.51719093      17.12391302
Pd       4.62123507       9.45746219      16.54992261
Pd       4.60615344      12.67559040      16.26619726
Pd       9.83318295      12.15016412      16.48204556
Pd       1.01386367       2.28232358      16.67144560
Pd       3.69575505       4.04360489      16.41111360
Pd      11.21042225       3.46934311      16.46885332
Pd       1.79082056       8.14626918      16.61900177
Pd       6.86848931       6.95640531      16.30514038
Pd       7.01968282       0.37188956      16.38218256
Pd       9.58971112       7.03213156      15.94897064
Pd       7.32741684       3.52940339      16.49507107
Pd      12.67368745      12.85946665      16.55968773
Pd       4.09677577       6.70384395      15.96017507
O        9.29149778       3.07116479      17.01145202
O        9.55539015      10.43360352      15.52512403
O       11.51796143      11.44846385      17.24185240
O       11.53146672       0.42843207      17.66102024
O       10.18953100       0.18740038      17.47060148
O        3.56798071       8.00712302      17.37961761
O        4.06541636       1.45682786      14.93101010
O        0.22052452       0.48532860      16.02448568
O        8.05242806      12.62874815      15.66430797
O        1.52920310      11.33134514      15.62068940
O        2.45552480       1.01449698      17.34489462
O        1.93942017       3.94706546      17.26925316
O        7.95882574       5.34182542      15.95387562
O        6.43584139       8.66833546      17.14967661
O        5.51611612       4.04484979      15.59345634
O       13.20594907       3.45477114      16.05542001
O       11.07169422       5.53224928      16.14724632
O       13.69281860       8.45201181      16.01371622
O        6.28692191       1.94307416      17.25055918
O        5.62525448      11.02363865      15.98550141
