115
Lattice="13.75323 0.0 0.0 0.0 13.75323 0.0 0.0 0.0 23.89" Properties=species:S:1:pos:R:3 entry_id=4 rank=30 energy=-571.8321533203125 parent_id=3 pbc="T T F"
Pd       0.00000000       0.00000000      10.00000000
Pd       2.75064538       0.00000000      10.00000000
Pd       5.50129076       0.00000000      10.00000000
Pd       8.25193614       0.00000000      10.00000000
Pd      11.00258152       0.00000000      10.00000000
Pd       0.00000000       2.75064538      10.00000000
Pd       2.75064538       2.75064538      10.00000000
Pd       5.50129076       2.75064538      10.00000000
Pd       8.25193614       2.75064538      10.00000000
Pd      11.00258152       2.75064538      10.00000000
Pd       0.00000000       5.50129076      10.00000000
Pd       2.75064538       5.50129076      10.00000000
Pd       5.50129076       5.50129076      10.00000000
Pd       8.25193614       5.50129076      10.00000000
Pd      11.00258152       5.50129076      10.00000000
Pd       0.00000000       8.25193614      10.00000000
Pd       2.75064538       8.25193614      10.00000000
Pd       5.50129076       8.25193614      10.00000000
Pd       8.25193614       8.25193614      10.00000000
Pd      11.00258152       8.25193614      10.00000000
Pd       0.00000000      11.00258152      10.00000000
Pd       2.75064538      11.00258152      10.00000000
Pd       5.50129076      11.00258152      10.00000000
Pd       8.25193614      11.00258152      10.00000000
Pd      11.00258152      11.00258152      10.00000000
Pd       1.31204036       1.41724418      12.03438697
Pd       4.05921747       1.41950441      11.90574145
Pd       6.82814000       1.39397252      11.90497270
Pd       9.57512057       1.39592898      11.89594876
Pd      12.38684272       1.37174114      11.92044161
Pd       1.34665988       4.12949966      12.01363428
Pd       4.06392651       4.17532162      11.96851234
Pd       6.82168917       4.16130633      11.95967798
Pd       9.56728621       4.13975942      11.94281254
Pd      12.36578195       4.13265160      11.93417299
Pd       1.37110082       6.89256210      11.94010419
Pd       4.13935064       6.87026939      11.96482277
Pd       6.87097415       6.85831372      11.95140951
Pd       9.64205429       6.82915781      11.94515418
Pd      12.39111484       6.85622887      11.94896407
Pd       1.36717900       9.65403347      11.98837950
Pd       4.11777592       9.66324146      11.95099537
Pd       6.89476706       9.64088005      11.95142944
Pd       9.64982872       9.59779534      11.89439304
Pd      12.42487279       9.60955999      11.94161946
Pd       1.33637709      12.41734098      11.99724793
Pd       4.09896367      12.40211255      11.91290322
Pd       6.86816975      12.39901143      11.97280504
Pd       9.63028672      12.36702810      11.91406436
Pd      12.38247634      12.34441276      12.01655312
Pd      13.73830593      13.75217287      14.06043539
Pd       2.69487148       0.05132849      13.97146106
Pd       5.44869663       0.04662565      13.87154408
Pd       8.20126700      13.74081760      13.85436919
Pd      10.94612453      13.72480840      14.01100062
Pd      13.54495808       2.73786431      14.11878566
Pd       2.57634963       2.88201063      14.08423790
Pd       5.48129702       2.77731835      13.84785751
Pd       8.19110657       2.74309024      13.86587291
Pd      10.88638367       2.67478462      13.89735355
Pd       0.00872077       5.43545042      13.98834428
Pd       2.72381333       5.62583101      14.02003589
Pd       5.47663944       5.62243755      14.09119099
Pd       8.22701208       5.48988491      13.99370628
Pd      10.98268001       5.37318841      13.96568160
Pd       0.11686182       8.19557047      13.98772279
Pd       2.80403110       8.35734995      13.98670319
Pd       5.55792071       8.31752300      13.98298540
Pd       8.30841966       8.29530912      13.95688950
Pd      11.05506317       8.17835795      13.91559813
Pd       0.04520557      10.98866593      14.20626602
Pd       2.76988884      11.08359619      13.90040221
Pd       5.49137564      11.08062666      13.88985297
Pd       8.26405924      11.04325646      14.05504845
Pd      10.97720316      10.91655612      13.91814023
Pd      12.41100940       6.55721159      16.10183692
Pd       8.95130137       9.66504257      16.44384029
Pd       1.67470950      13.11602687      16.44248809
Pd       1.31090854       6.24355616      16.37004630
Pd      12.36926203       9.28983264      16.05147541
Pd       9.16761392       1.30613827      15.82390218
Pd       4.36158106       1.38144032      16.88771925
Pd       5.53880417      10.09461435      16.37401402
Pd       4.16052010      12.36396849      15.93752347
Pd      10.45679968      12.35892316      16.69602974
Pd       1.02663242       2.56324351      16.65373870
Pd       3.69860192       4.28409841      16.28026321
Pd      11.10099536       3.23787331      16.62645511
Pd       2.59428124      10.05592747      16.37635976
Pd       7.05770702       7.15103761      16.22976281
Pd       6.73172051      13.48359755      16.21801424
Pd       9.70342975       7.01864435      15.94599630
Pd       7.25013036       3.42717401      16.40451575
Pd      13.07148630       0.41840603      16.88372463
Pd       4.07782317       7.11156051      16.00802579
O        9.10775566       2.91144256      17.03198336
O       10.78615781      10.47581243      15.96557511
O       12.03273118      13.04933598      15.66926403
O       11.31580447       1.36448378      17.57247960
O       10.15783655       0.50232672      17.44931869
O        4.08011663       8.90064214      16.96532544
O        4.03680060       1.53225013      14.83456559
O        0.16894926       1.56115854      18.10963297
O        8.99506057      11.40764843      17.49936046
O        1.05608888      11.27359622      16.03268743
O        2.42649701       1.10349070      17.06775639
O        1.93993404       4.49992389      17.01213532
O        7.83873823       5.32206436      15.98646223
O        7.15903915       8.97138590      16.95556498
O        5.50201985       4.03515253      15.53610378
O       13.09283276       3.47142623      16.00024457
O       10.95106573       5.20925393      16.05308125
O        0.13670859       7.93334761      16.09261832
O        6.33201370       1.57293048      16.89913870
O        6.80040661      11.53579190      15.61835496
