115
Lattice="13.75323 0.0 0.0 0.0 13.75323 0.0 0.0 0.0 23.89" Properties=species:S:1:pos:R:3 entry_id=20 rank=16 energy=-572.8695678710938 parent_id=19 pbc="T T F"
Pd       0.00000000       0.00000000      10.00000000
Pd       2.75064538       0.00000000      10.00000000
Pd       5.50129076       0.00000000      10.00000000
Pd       8.25193614       0.00000000      10.00000000
Pd      11.00258152       0.00000000      10.00000000
Pd       0.00000000       2.75064538      10.00000000
Pd       2.75064538       2.75064538      10.00000000
Pd       5.50129076       2.75064538      10.00000000
Pd       8.25193614       2.75064538      10.00000000
Pd      11.00258152       2.75064538      10.00000000
Pd       0.00000000       5.50129076      10.00000000
Pd       2.75064538       5.50129076      10.00000000
Pd       5.50129076       5.50129076      10.00000000
Pd       8.25193614       5.50129076      10.00000000
Pd      11.00258152       5.50129076      10.00000000
Pd       0.00000000       8.25193614      10.00000000
Pd       2.75064538       8.25193614      10.00000000
Pd       5.50129076       8.25193614      10.00000000
Pd       8.25193614       8.25193614      10.00000000
Pd      11.00258152       8.25193614      10.00000000
Pd       0.00000000      11.00258152      10.00000000
Pd       2.75064538      11.00258152      10.00000000
Pd       5.50129076      11.00258152      10.00000000
Pd       8.25193614      11.00258152      10.00000000
Pd      11.00258152      11.00258152      10.00000000
Pd       1.37425036       1.38783201      11.96028628
Pd       4.11967273       1.40153801      11.93062400
Pd       6.84789018       1.39417359      11.98428624
Pd       9.57512057       1.39592898      11.89594876
Pd      12.38684272       1.37174114      11.92044161
Pd       1.35921297       4.13347254      12.02119628
Pd       4.07027223       4.14341653      11.97143717
Pd       6.82263177       4.10245104      11.97345422
Pd       9.56728621       4.13975942      11.94281254
Pd      12.36578195       4.13265160      11.93417299
Pd       1.37110082       6.89256210      11.94010419
Pd       4.13935064       6.87026939      11.96482277
Pd       6.87097415       6.85831372      11.95140951
Pd       9.64205429       6.82915781      11.94515418
Pd      12.39111484       6.85622887      11.94896407
Pd       1.38496059       9.65578565      11.97411872
Pd       4.11777592       9.66324146      11.95099537
Pd       6.89476706       9.64088005      11.95142944
Pd       9.64982872       9.59779534      11.89439304
Pd      12.42487279       9.60955999      11.94161946
Pd       1.38233058      12.38203390      12.01355084
Pd       4.13496514      12.38352410      11.96837830
Pd       6.86816975      12.39901143      11.97280504
Pd       9.63028672      12.36702810      11.91406436
Pd      12.40034246      12.35643189      12.00966965
Pd      13.74057153       0.01620180      13.96740259
Pd       2.76003838      13.73589760      13.96912217
Pd       5.52664349       0.04841909      14.01738749
Pd       8.30206994       0.03679096      13.94615116
Pd      10.99467921       0.00633152      14.00139159
Pd      13.72607944       2.81125665      13.95622460
Pd       2.67300688       2.78120600      14.06714407
Pd       5.44735164       2.84222147      14.03264700
Pd       8.21514483       2.74423433      13.98412940
Pd      10.93838731       2.77307219      13.91782375
Pd      13.68667889       5.55715729      13.96444174
Pd       2.67082001       5.52706358      14.08307602
Pd       5.47498021       5.56574439      13.89453075
Pd       8.24432080       5.46686892      13.93775237
Pd      10.98513488       5.50149425      14.05372661
Pd       0.05197316       8.28198859      13.89029286
Pd       2.85339814       8.24707445      13.96481026
Pd       5.59989209       8.24973257      13.96461902
Pd       8.30710705       8.16794783      13.94108558
Pd      11.02093297       8.21751186      14.00805067
Pd       0.00577347      11.00923634      14.20946918
Pd       2.85732743      10.95694073      13.99804307
Pd       5.54935537      11.00517528      13.96629251
Pd       8.27189613      10.94197609      13.87993870
Pd      11.07717401      10.97180053      13.94638532
Pd      12.38686898       6.51913400      16.35992233
Pd       7.57023938       9.38530687      16.27519782
Pd       2.18729822      12.52082215      16.51411400
Pd       0.98193527       4.76554233      16.21235256
Pd      12.28508714       9.56088948      16.23507127
Pd       9.62948372       1.56670747      15.96972037
Pd       4.29313803       1.06469236      17.57444660
Pd       4.34127044       9.01553027      16.29276264
Pd       4.80199404      12.53599049      16.35967703
Pd       9.74445274      11.93954857      16.42291653
Pd       0.98797493       1.50280783      16.76611047
Pd       3.29347666       3.36305856      16.77636082
Pd      12.17781833       3.69950864      16.31381398
Pd       1.67049383       7.50458268      16.28818622
Pd       6.81123944       6.76815765      16.33977430
Pd       7.05267428       0.31978616      16.51075522
Pd       9.59374020       4.89194996      16.44868064
Pd       6.90672159       3.28577997      16.66941103
Pd      12.63437697      12.32693500      16.47934897
Pd       4.34315103       5.71383603      16.31423061
O        8.82781142       3.02164111      17.15283726
O        9.19691659      10.21349879      15.59966808
O       11.34158780      11.03040140      17.14451301
O       11.62686753       0.04677389      17.54571829
O       10.28195645       0.00057471      17.29132457
O        3.48955067       7.34965121      16.93413781
O        4.07298842       1.37351727      14.81060448
O        0.38276910      13.49765843      15.99709839
O        8.05163734      12.64637017      15.63950764
O        1.61200775      10.92598118      15.53968894
O        2.46319403       0.39000415      17.65155528
O        1.51287599       3.26380904      17.52183367
O        7.67145811       5.03863843      15.90044933
O        6.11585269       8.40672685      17.13748895
O        5.08114246       3.83015449      15.98582081
O       13.15644754       2.14487988      15.76559722
O       11.32965678       5.15817146      17.28384859
O       13.54693921       8.04905917      15.90241795
O        6.15595588       1.67179207      17.58707645
O        5.36053798      10.69502408      15.96794908
