115
Lattice="13.75323 0.0 0.0 0.0 13.75323 0.0 0.0 0.0 23.89" Properties=species:S:1:pos:R:3 entry_id=27 rank=9 energy=-572.950439453125 parent_id=26 pbc="T T F"
Pd       0.00000000       0.00000000      10.00000000
Pd       2.75064538       0.00000000      10.00000000
Pd       5.50129076       0.00000000      10.00000000
Pd       8.25193614       0.00000000      10.00000000
Pd      11.00258152       0.00000000      10.00000000
Pd       0.00000000       2.75064538      10.00000000
Pd       2.75064538       2.75064538      10.00000000
Pd       5.50129076       2.75064538      10.00000000
Pd       8.25193614       2.75064538      10.00000000
Pd      11.00258152       2.75064538      10.00000000
Pd       0.00000000       5.50129076      10.00000000
Pd       2.75064538       5.50129076      10.00000000
Pd       5.50129076       5.50129076      10.00000000
Pd       8.25193614       5.50129076      10.00000000
Pd      11.00258152       5.50129076      10.00000000
Pd       0.00000000       8.25193614      10.00000000
Pd       2.75064538       8.25193614      10.00000000
Pd       5.50129076       8.25193614      10.00000000
Pd       8.25193614       8.25193614      10.00000000
Pd      11.00258152       8.25193614      10.00000000
Pd       0.00000000      11.00258152      10.00000000
Pd       2.75064538      11.00258152      10.00000000
Pd       5.50129076      11.00258152      10.00000000
Pd       8.25193614      11.00258152      10.00000000
Pd      11.00258152      11.00258152      10.00000000
Pd       1.37307163       1.39815804      11.95560894
Pd       4.10970512       1.41417739      11.96661216
Pd       6.86024619       1.41212012      11.94779883
Pd       9.57512057       1.39592898      11.89594876
Pd      12.38684272       1.37174114      11.92044161
Pd       1.34892398       4.15362141      11.99423689
Pd       4.06321872       4.14477025      11.97563168
Pd       6.82168600       4.11573308      11.94960009
Pd       9.56728621       4.13975942      11.94281254
Pd      12.36578195       4.13265160      11.93417299
Pd       1.37110082       6.89256210      11.94010419
Pd       4.13935064       6.87026939      11.96482277
Pd       6.87097415       6.85831372      11.95140951
Pd       9.64205429       6.82915781      11.94515418
Pd      12.39111484       6.85622887      11.94896407
Pd       1.39316675       9.66449189      11.97760734
Pd       4.11777592       9.66324146      11.95099537
Pd       6.89476706       9.64088005      11.95142944
Pd       9.64982872       9.59779534      11.89439304
Pd      12.42487279       9.60955999      11.94161946
Pd       1.37839523      12.39147485      12.00826901
Pd       4.12654740      12.38790319      11.99470399
Pd       6.86816975      12.39901143      11.97280504
Pd       9.63028672      12.36702810      11.91406436
Pd      12.38966686      12.35052452      12.01031231
Pd      13.71545604       0.03538077      13.94867217
Pd       2.68203678       0.06236100      13.97700499
Pd       5.61128596       0.14416572      13.89877195
Pd       8.34247272       0.03676810      13.92543907
Pd      11.00704834       0.01594059      14.01740011
Pd      13.72283709       2.80256285      13.93367894
Pd       2.66340219       2.80737181      14.02580820
Pd       5.41012612       2.85754319      14.02781963
Pd       8.18456392       2.74740043      13.95920859
Pd      10.92467852       2.77744450      13.93789231
Pd      13.68039510       5.55328689      13.98045130
Pd       2.65148468       5.54051639      14.09184482
Pd       5.46302009       5.56253433      13.88358862
Pd       8.23540077       5.46798780      13.91763554
Pd      10.97579654       5.51478562      14.03235772
Pd       0.07002435       8.28794968      13.88632147
Pd       2.87042138       8.25524378      13.96926536
Pd       5.60502682       8.23141781      13.98883734
Pd       8.31723338       8.16872509      13.94252963
Pd      11.03926002       8.23324386      14.02325938
Pd      13.71898354      11.03779639      14.19941851
Pd       2.83535985      10.98092042      14.03938806
Pd       5.54366234      10.95418429      13.99119327
Pd       8.25001225      10.94688743      13.87961348
Pd      11.04549089      10.97723788      13.95995228
Pd      12.36945704       6.76019056      16.30587479
Pd       7.64763877       9.42433446      16.25775621
Pd       1.98969626      12.57580282      16.57803319
Pd       0.96624045       5.03150513      16.33949798
Pd      12.30253739       9.70052149      16.30213901
Pd       9.52312121       1.58007625      15.95734115
Pd       4.15931244       1.11544826      17.53270086
Pd       4.37497473       9.09691485      16.34001248
Pd       4.61376116      12.59820858      15.99901048
Pd       9.72114433      12.00368038      16.45330319
Pd       0.89589492       1.65337650      16.76002481
Pd       3.21861200       3.44645977      16.67359842
Pd      12.15997431       3.97282245      16.27548684
Pd       1.71517965       7.69396337      16.34509357
Pd       6.81210752       6.81646485      16.31033983
Pd       6.99106335       0.31382909      16.46072733
Pd       9.52219153       4.96864519      16.42317078
Pd       6.83448711       3.29943767      16.61823985
Pd      12.56282602      12.44981889      16.52995703
Pd       4.32920544       5.79403108      16.29879861
O        8.76082784       3.06524728      17.11084266
O        9.27235381      10.27664195      15.57790969
O       11.31502659      11.13099319      17.23170698
O       11.53657672       0.17960495      17.56233981
O       10.18713561       0.08087847      17.33251960
O        3.52509693       7.43378813      16.97952082
O        4.12845692       0.66652711      15.32628460
O        0.26231827      13.65185086      15.99200455
O        8.03054256      12.65212858      15.61845037
O        1.52661212      10.98413216      15.54944727
O        2.30576616       0.48015429      17.66562313
O        1.46398316       3.40968903      17.49173577
O        7.59807757       5.05019568      15.86650500
O        6.17832038       8.47270153      17.11984997
O        5.02420351       3.87154021      15.91161733
O       13.09228530       2.37434296      15.78009044
O       11.24990601       5.42789963      17.19658469
O       13.60993342       8.24718126      15.91040761
O        6.05379961       1.67720964      17.49389748
O        5.33797367      10.79980663      16.05644781
