115
Lattice="13.75323 0.0 0.0 0.0 13.75323 0.0 0.0 0.0 23.89" Properties=species:S:1:pos:R:3 entry_id=0 rank=34 energy=-568.3948364257812 parent_id=-1 pbc="T T F"
Pd       0.00000000       0.00000000      10.00000000
Pd       2.75064538       0.00000000      10.00000000
Pd       5.50129076       0.00000000      10.00000000
Pd       8.25193614       0.00000000      10.00000000
Pd      11.00258152       0.00000000      10.00000000
Pd       0.00000000       2.75064538      10.00000000
Pd       2.75064538       2.75064538      10.00000000
Pd       5.50129076       2.75064538      10.00000000
Pd       8.25193614       2.75064538      10.00000000
Pd      11.00258152       2.75064538      10.00000000
Pd       0.00000000       5.50129076      10.00000000
Pd       2.75064538       5.50129076      10.00000000
Pd       5.50129076       5.50129076      10.00000000
Pd       8.25193614       5.50129076      10.00000000
Pd      11.00258152       5.50129076      10.00000000
Pd       0.00000000       8.25193614      10.00000000
Pd       2.75064538       8.25193614      10.00000000
Pd       5.50129076       8.25193614      10.00000000
Pd       8.25193614       8.25193614      10.00000000
Pd      11.00258152       8.25193614      10.00000000
Pd       0.00000000      11.00258152      10.00000000
Pd       2.75064538      11.00258152      10.00000000
Pd       5.50129076      11.00258152      10.00000000
Pd       8.25193614      11.00258152      10.00000000
Pd      11.00258152      11.00258152      10.00000000
Pd       1.34624481       1.38083132      12.08138261
Pd       4.09709607       1.39052135      12.02477048
Pd       6.82981693       1.36955785      12.02875988
Pd       9.57512057       1.39592898      11.89594876
Pd      12.38684272       1.37174114      11.92044161
Pd       1.36476960       4.11652538      11.98604215
Pd       4.10063794       4.12336658      12.03936443
Pd       6.80964073       4.10127368      12.01948603
Pd       9.56728621       4.13975942      11.94281254
Pd      12.36578195       4.13265160      11.93417299
Pd       1.37110082       6.89256210      11.94010419
Pd       4.13935064       6.87026939      11.96482277
Pd       6.87097415       6.85831372      11.95140951
Pd       9.64205429       6.82915781      11.94515418
Pd      12.39111484       6.85622887      11.94896407
Pd       1.35621572       9.70036459      11.99804161
Pd       4.11777592       9.66324146      11.95099537
Pd       6.89476706       9.64088005      11.95142944
Pd       9.64982872       9.59779534      11.89439304
Pd      12.42487279       9.60955999      11.94161946
Pd       1.38044366      12.43193581      12.05371984
Pd       4.10022028      12.39282457      12.00406080
Pd       6.86816975      12.39901143      11.97280504
Pd       9.63028672      12.36702810      11.91406436
Pd      12.44377458      12.34106493      11.97882823
Pd      13.68384435      13.72509136      14.13498376
Pd       2.74108598       0.13690851      14.18797488
Pd       5.57275413      13.58408802      14.03503319
Pd       8.32211247       0.10874258      14.02898375
Pd      11.00945566       0.06538573      13.76261004
Pd      13.56160282       2.74997238      13.99053058
Pd       2.60936581       2.89248939      14.11902529
Pd       5.38704181       2.66347107      14.17473797
Pd       8.19636272       2.74739850      13.98467648
Pd      10.87233439       2.71372187      13.87798538
Pd       0.02065333       5.52365355      13.94649508
Pd       2.72280874       5.58686905      14.00784010
Pd       5.45645845       5.48205113      14.06965958
Pd       8.27768842       5.48392466      14.03245541
Pd      11.00184585       5.39663134      13.97231164
Pd       0.04972192       8.32458010      13.97806852
Pd       2.75360034       8.29352213      13.88781321
Pd       5.49570097       8.26290923      13.94877640
Pd       8.40017256       8.22069736      13.82453136
Pd      11.08213746       8.19517136      13.93716506
Pd      13.58926562      10.96822080      14.50063821
Pd       2.74688225      11.08187743      14.01334146
Pd       5.55693238      10.90583232      13.95551437
Pd       8.34036863      11.01506209      13.92444065
Pd      11.03614499      10.88291236      13.82898028
Pd      12.43758737       6.59289300      16.10453643
Pd       8.74025576       9.62199624      16.23413091
Pd       2.03064304      12.72899236      16.64122357
Pd       1.41926447       7.01588120      16.25544116
Pd      11.87896631       9.39106387      16.30172362
Pd       8.32079313       1.37679033      16.95470962
Pd       4.98993877       0.37833823      17.18452644
Pd       5.65052960       9.65141721      17.05430255
Pd       4.39388140      11.78173897      16.13852499
Pd      10.86721198      12.42525897      15.91206377
Pd       0.84947839       4.28629806      16.30381080
Pd       3.88142039       4.40498303      16.31824058
Pd      11.15786790       3.15623463      16.54908125
Pd       2.99015568       9.51108301      16.27593038
Pd       7.25969733       7.14732083      16.87909693
Pd       6.97189873      11.97823725      16.16839767
Pd       9.73205147       6.98605133      15.97462931
Pd       7.44866388       3.72300984      16.42951404
Pd       1.07460854       1.49126339      16.04519888
Pd       4.09056963       7.08728911      15.90611862
O        9.23782710       3.11396885      17.10113746
O       10.39579359      10.53346737      16.84738020
O       12.86562593      12.54158293      15.65828701
O       11.40040247       1.29085287      17.22749990
O       10.36258531       0.44720767      17.13446801
O        5.25443704       7.65424710      17.37628308
O        4.40734731       1.01612792      15.22009491
O        2.39087770       1.64072658      17.53600115
O        8.88608797      12.46471494      15.43789553
O        1.53675381      10.98906540      15.78940944
O        3.00994012       0.38462495      17.70396226
O        2.31058678       5.38259957      17.01125620
O        6.98074354       5.58701857      15.66941353
O        7.53893874       8.89925471      17.78023645
O        5.52329692       3.35577069      16.08825514
O       13.14558805       2.98275029      16.01060914
O       11.03829001       5.17652478      16.05771991
O       13.54551454       8.25307823      16.06253599
O        6.93525635       0.02468501      17.15686865
O        7.07533236       8.65273547      15.26881973
