115
Lattice="13.75323 0.0 0.0 0.0 13.75323 0.0 0.0 0.0 23.89" Properties=species:S:1:pos:R:3 entry_id=2 rank=7 energy=-571.119140625 parent_id=1 pbc="T T F"
Pd       0.00000000       0.00000000      10.00000000
Pd       2.75064538       0.00000000      10.00000000
Pd       5.50129076       0.00000000      10.00000000
Pd       8.25193614       0.00000000      10.00000000
Pd      11.00258152       0.00000000      10.00000000
Pd       0.00000000       2.75064538      10.00000000
Pd       2.75064538       2.75064538      10.00000000
Pd       5.50129076       2.75064538      10.00000000
Pd       8.25193614       2.75064538      10.00000000
Pd      11.00258152       2.75064538      10.00000000
Pd       0.00000000       5.50129076      10.00000000
Pd       2.75064538       5.50129076      10.00000000
Pd       5.50129076       5.50129076      10.00000000
Pd       8.25193614       5.50129076      10.00000000
Pd      11.00258152       5.50129076      10.00000000
Pd       0.00000000       8.25193614      10.00000000
Pd       2.75064538       8.25193614      10.00000000
Pd       5.50129076       8.25193614      10.00000000
Pd       8.25193614       8.25193614      10.00000000
Pd      11.00258152       8.25193614      10.00000000
Pd       0.00000000      11.00258152      10.00000000
Pd       2.75064538      11.00258152      10.00000000
Pd       5.50129076      11.00258152      10.00000000
Pd       8.25193614      11.00258152      10.00000000
Pd      11.00258152      11.00258152      10.00000000
Pd       1.33682969       1.39941671      12.06518236
Pd       4.06360906       1.39166356      11.96099530
Pd       6.83747502       1.35976119      11.97168359
Pd       9.57512057       1.39592898      11.89594876
Pd      12.38684272       1.37174114      11.92044161
Pd       1.37999402       4.11182809      12.00921848
Pd       4.08441931       4.14374485      12.00240725
Pd       6.82337271       4.11016089      12.00112268
Pd       9.56728621       4.13975942      11.94281254
Pd      12.36578195       4.13265160      11.93417299
Pd       1.37110082       6.89256210      11.94010419
Pd       4.13935064       6.87026939      11.96482277
Pd       6.87097415       6.85831372      11.95140951
Pd       9.64205429       6.82915781      11.94515418
Pd      12.39111484       6.85622887      11.94896407
Pd       1.36983404       9.67445545      12.00357488
Pd       4.11777592       9.66324146      11.95099537
Pd       6.89476706       9.64088005      11.95142944
Pd       9.64982872       9.59779534      11.89439304
Pd      12.42487279       9.60955999      11.94161946
Pd       1.37204653      12.42843749      12.03099580
Pd       4.09298494      12.38520039      11.97380907
Pd       6.86816975      12.39901143      11.97280504
Pd       9.63028672      12.36702810      11.91406436
Pd      12.42097071      12.34487522      11.97366727
Pd      13.67591579       0.01287655      14.06848555
Pd       2.71678933       0.09171627      14.12366638
Pd       5.46611624      13.72785517      13.92977418
Pd       8.26100453      13.70086265      13.95741035
Pd      10.98249373       0.08915617      13.76751335
Pd      13.54435596       2.77803836      13.96945260
Pd       2.55774762       2.89971715      14.23057792
Pd       5.41610550       2.66519031      13.94961574
Pd       8.20780590       2.66083205      13.95245437
Pd      10.86427185       2.72198796      13.90700072
Pd       0.06800040       5.49706931      13.95162651
Pd       2.76274296       5.60166353      14.03401057
Pd       5.52882910       5.54719358      14.08405608
Pd       8.28557342       5.42365610      14.00238722
Pd      11.04016629       5.40202380      13.97395595
Pd       0.07988085       8.25108014      13.95303053
Pd       2.83106652       8.30940630      13.98330681
Pd       5.60044288       8.28805690      13.94126730
Pd       8.33328855       8.24160588      13.95865411
Pd      11.05326363       8.22006908      13.92171250
Pd      13.62469811      10.93015171      14.26749976
Pd       2.75573298      11.07434681      13.98146581
Pd       5.52654038      11.02004840      13.92932744
Pd       8.29952390      10.96537095      14.08262942
Pd      10.97680419      10.92730152      13.84171115
Pd      12.53658028       6.53770653      16.12104329
Pd       9.06125536       9.57356341      16.46468584
Pd       1.75199281      12.77181165      16.56284106
Pd       1.62165588       7.01484161      16.28573240
Pd      12.11032428       9.36655796      16.20209592
Pd       9.19086831       1.01625995      16.29654345
Pd       4.46121763       1.04729325      17.12593919
Pd       5.69452854      10.00101506      16.47143692
Pd       4.24198297      12.23285554      16.00786794
Pd      11.16227654      12.50218056      15.93882972
Pd       0.83926316       4.36114347      16.42147480
Pd       3.84897631       4.52835321      16.36567363
Pd      11.13752326       3.16959856      16.60595276
Pd       2.88568277       9.72648836      16.42299396
Pd       7.19813772       6.96285530      16.21853844
Pd       6.72056271      13.36606384      16.30660487
Pd       9.84900629       6.99898501      15.98850495
Pd       7.29744094       3.30363163      16.44562743
Pd       0.71635154       1.51528883      16.16255051
Pd       4.38724067       7.11533330      16.01083067
O        9.17175213       2.80110725      17.11551194
O       10.71542090      10.59575939      16.72141852
O       13.11629516      12.48125550      15.60512824
O       11.79780458       1.42973960      17.44916875
O       10.90130299       0.43798502      17.46491578
O        4.37590922       8.73506995      17.21595189
O        3.91342974       1.55564401      15.11783148
O        1.74191649       1.51305546      17.88621159
O        9.19684669      12.85693938      15.74495987
O        1.50336962      10.95110109      15.68957000
O        2.62535877       0.42844434      17.75661081
O        2.31521378       5.36857239      17.21725687
O        7.95071148       5.14095089      15.98436227
O        7.30005471       8.79847453      16.87471336
O        5.55392047       3.92084510      15.57739610
O       13.10389790       3.14051908      15.98858645
O       11.06504795       5.18512542      16.06613249
O       13.70043302       8.16228108      16.03246651
O        6.38591936       1.46479770      16.97228420
O        6.87945706      11.42962397      15.69472190
