115
Lattice="13.75323 0.0 0.0 0.0 13.75323 0.0 0.0 0.0 23.89" Properties=species:S:1:pos:R:3 entry_id=7 rank=0 energy=-571.4243774414062 parent_id=5 pbc="T T F"
Pd       0.00000000       0.00000000      10.00000000
Pd       2.75064538       0.00000000      10.00000000
Pd       5.50129076       0.00000000      10.00000000
Pd       8.25193614       0.00000000      10.00000000
Pd      11.00258152       0.00000000      10.00000000
Pd       0.00000000       2.75064538      10.00000000
Pd       2.75064538       2.75064538      10.00000000
Pd       5.50129076       2.75064538      10.00000000
Pd       8.25193614       2.75064538      10.00000000
Pd      11.00258152       2.75064538      10.00000000
Pd       0.00000000       5.50129076      10.00000000
Pd       2.75064538       5.50129076      10.00000000
Pd       5.50129076       5.50129076      10.00000000
Pd       8.25193614       5.50129076      10.00000000
Pd      11.00258152       5.50129076      10.00000000
Pd       0.00000000       8.25193614      10.00000000
Pd       2.75064538       8.25193614      10.00000000
Pd       5.50129076       8.25193614      10.00000000
Pd       8.25193614       8.25193614      10.00000000
Pd      11.00258152       8.25193614      10.00000000
Pd       0.00000000      11.00258152      10.00000000
Pd       2.75064538      11.00258152      10.00000000
Pd       5.50129076      11.00258152      10.00000000
Pd       8.25193614      11.00258152      10.00000000
Pd      11.00258152      11.00258152      10.00000000
Pd       1.36569617       1.41617210      12.06389470
Pd       4.09080211       1.40058821      11.98734057
Pd       6.82934095       1.37027356      11.96824815
Pd       9.57512057       1.39592898      11.89594876
Pd      12.38684272       1.37174114      11.92044161
Pd       1.36438920       4.14468306      11.99044107
Pd       4.07973474       4.14845120      12.00695603
Pd       6.80585699       4.11776778      11.99992782
Pd       9.56728621       4.13975942      11.94281254
Pd      12.36578195       4.13265160      11.93417299
Pd       1.37110082       6.89256210      11.94010419
Pd       4.13935064       6.87026939      11.96482277
Pd       6.87097415       6.85831372      11.95140951
Pd       9.64205429       6.82915781      11.94515418
Pd      12.39111484       6.85622887      11.94896407
Pd       1.36246109       9.70528400      12.01003028
Pd       4.11777592       9.66324146      11.95099537
Pd       6.89476706       9.64088005      11.95142944
Pd       9.64982872       9.59779534      11.89439304
Pd      12.42487279       9.60955999      11.94161946
Pd       1.35891974      12.45123572      12.00467977
Pd       4.08532356      12.42445884      11.99026238
Pd       6.86816975      12.39901143      11.97280504
Pd       9.63028672      12.36702810      11.91406436
Pd      12.40467485      12.33176941      11.98780664
Pd       0.03100088       0.03794977      14.05308349
Pd       2.77308592       0.22998693      14.18835463
Pd       5.60225233      13.67794531      14.02997918
Pd       8.36058381       0.01779530      13.94786429
Pd      11.04405305      13.69655748      13.95915617
Pd      13.59445846       2.80232802      13.95914783
Pd       2.62006809       2.97052815      14.15176595
Pd       5.41217434       2.69999992      13.98836938
Pd       8.22607677       2.69616359      13.91748531
Pd      10.89730470       2.65066338      13.88280997
Pd       0.02861494       5.56946431      13.96734229
Pd       2.75240455       5.66575940      14.02237045
Pd       5.51221567       5.52666432      14.10697692
Pd       8.27105436       5.45434255      13.97587863
Pd      11.02814874       5.37391119      13.96239421
Pd       0.05800787       8.31749517      13.99079575
Pd       2.81863194       8.40915027      13.94022160
Pd       5.61935355       8.25930270      13.92563372
Pd       8.34477018       8.25090191      13.95764110
Pd      11.08223379       8.17831851      13.91646431
Pd      13.54804475      11.00853187      14.33721603
Pd       2.68458952      11.19991214      13.99848197
Pd       5.44722416      10.95543028      13.86268346
Pd       8.18495699      11.01553425      13.94652425
Pd      10.88957016      10.89397260      13.89684690
Pd      12.52171446       6.44093654      16.32524896
Pd       9.01497749       9.49498217      16.43871047
Pd       2.03720963      12.83875865      16.62737614
Pd       1.53842493       7.19621879      16.00480783
Pd      12.18587142       9.22741250      16.22089342
Pd       9.01692011       0.98802671      17.42162235
Pd       4.94808016       0.83798691      17.18452914
Pd       5.86970408       9.90376217      16.39356563
Pd       4.48650431      12.12784926      16.01076734
Pd      10.76458556      12.55560432      16.53042821
Pd       0.87025432       4.42391327      16.36985157
Pd       3.83636379       4.60373328      16.34424932
Pd      11.21094503       3.17382521      16.55890962
Pd       2.82716268       9.88217631      16.36838794
Pd       7.18437774       6.94286596      16.23921151
Pd       7.15852011      12.99796846      16.28227595
Pd       9.86393752       7.01056868      15.99975071
Pd       7.41982427       3.31626521      16.42196896
Pd       1.02896771       1.56499796      16.06640669
Pd       4.33077073       7.17844306      15.95682805
O        9.27680271       2.91858145      17.22099862
O       10.66632535      10.54888604      15.97073640
O       12.40727669      12.68669481      15.28369973
O       11.89936312       1.43024494      17.22299271
O       10.98873852       0.52865479      17.67704786
O        4.33408121       8.85710770      17.06789532
O        4.40516759       1.24096366      15.18210926
O        2.23079487       1.65671083      17.66521071
O        8.95414417      12.77238324      17.45112209
O        1.39528429      11.15822519      15.75650764
O        3.00688714       0.47255362      17.71725144
O        2.28149373       5.54175453      17.10060721
O        7.97590141       5.15303029      15.95236183
O        7.35025537       8.67477612      17.12248651
O        5.57017842       3.86044500      15.67236759
O       13.20743923       3.12041428      15.95813765
O       11.06136910       5.12976393      16.01309124
O       13.58870073       7.98565194      16.85516255
O        6.93811728       1.27508171      16.93178308
O        7.45765787      11.06259462      15.89562031
