115
Lattice="13.75323 0.0 0.0 0.0 13.75323 0.0 0.0 0.0 23.89" Properties=species:S:1:pos:R:3 entry_id=8 rank=1 energy=-571.4216918945312 parent_id=7 pbc="T T F"
Pd       0.00000000       0.00000000      10.00000000
Pd       2.75064538       0.00000000      10.00000000
Pd       5.50129076       0.00000000      10.00000000
Pd       8.25193614       0.00000000      10.00000000
Pd      11.00258152       0.00000000      10.00000000
Pd       0.00000000       2.75064538      10.00000000
Pd       2.75064538       2.75064538      10.00000000
Pd       5.50129076       2.75064538      10.00000000
Pd       8.25193614       2.75064538      10.00000000
Pd      11.00258152       2.75064538      10.00000000
Pd       0.00000000       5.50129076      10.00000000
Pd       2.75064538       5.50129076      10.00000000
Pd       5.50129076       5.50129076      10.00000000
Pd       8.25193614       5.50129076      10.00000000
Pd      11.00258152       5.50129076      10.00000000
Pd       0.00000000       8.25193614      10.00000000
Pd       2.75064538       8.25193614      10.00000000
Pd       5.50129076       8.25193614      10.00000000
Pd       8.25193614       8.25193614      10.00000000
Pd      11.00258152       8.25193614      10.00000000
Pd       0.00000000      11.00258152      10.00000000
Pd       2.75064538      11.00258152      10.00000000
Pd       5.50129076      11.00258152      10.00000000
Pd       8.25193614      11.00258152      10.00000000
Pd      11.00258152      11.00258152      10.00000000
Pd       1.37044409       1.41793215      12.06123456
Pd       4.09865389       1.40705640      11.99417681
Pd       6.83290522       1.36913827      11.96812302
Pd       9.57512057       1.39592898      11.89594876
Pd      12.38684272       1.37174114      11.92044161
Pd       1.36746128       4.14684790      11.99815329
Pd       4.08084406       4.14909856      12.00748833
Pd       6.80895181       4.11764181      11.99833090
Pd       9.56728621       4.13975942      11.94281254
Pd      12.36578195       4.13265160      11.93417299
Pd       1.37110082       6.89256210      11.94010419
Pd       4.13935064       6.87026939      11.96482277
Pd       6.87097415       6.85831372      11.95140951
Pd       9.64205429       6.82915781      11.94515418
Pd      12.39111484       6.85622887      11.94896407
Pd       1.35840087       9.71290083      12.01043937
Pd       4.11777592       9.66324146      11.95099537
Pd       6.89476706       9.64088005      11.95142944
Pd       9.64982872       9.59779534      11.89439304
Pd      12.42487279       9.60955999      11.94161946
Pd       1.36597881      12.45273395      12.00914452
Pd       4.09400427      12.42859441      11.99285917
Pd       6.86816975      12.39901143      11.97280504
Pd       9.63028672      12.36702810      11.91406436
Pd      12.41162899      12.33030439      11.99036389
Pd       0.04143354       0.04838268      14.05601856
Pd       2.78642361       0.23152423      14.18234432
Pd       5.61200889      13.68346037      14.04724492
Pd       8.37261263       0.01943519      13.94396301
Pd      11.05567247      13.67781094      13.96923103
Pd      13.61228293       2.80579975      13.95671353
Pd       2.64864183       2.96900631      14.15749008
Pd       5.44801369       2.71219851      13.99316404
Pd       8.24084665       2.69115552      13.92189888
Pd      10.90833398       2.63060793      13.89350486
Pd       0.01244566       5.57702933      13.97013285
Pd       2.73659231       5.66797029      14.02700749
Pd       5.50351713       5.53321744      14.10214203
Pd       8.25290195       5.42780840      13.97709521
Pd      11.02563347       5.34797316      13.94342589
Pd       0.03797500       8.32348432      13.98914446
Pd       2.78157855       8.41788518      13.93090321
Pd       5.57949372       8.28275695      13.91240191
Pd       8.34585036       8.26384907      13.91760232
Pd      11.07062076       8.14238316      13.97465149
Pd      13.57455890      11.01724044      14.35949973
Pd       2.70903254      11.21077480      14.00427187
Pd       5.46510904      10.96686558      13.87678469
Pd       8.20143664      11.02200407      13.94749491
Pd      10.91651685      10.87425665      13.88921803
Pd      12.49674386       6.47047873      16.31870960
Pd       9.09762684       9.43873875      16.40931521
Pd       2.10683523      12.84977119      16.63133175
Pd       1.49941294       7.19612653      16.01520114
Pd      12.20542333       9.26103624      16.23282880
Pd       9.06825573       1.01394706      17.43246484
Pd       5.01946130       0.86752383      17.16040519
Pd       5.96997945       9.89542385      16.41769985
Pd       4.56524460      12.11632346      16.05685336
Pd      10.81205878      12.57373299      16.54994703
Pd       0.90989079       4.42567659      16.35086035
Pd       3.89335510       4.61371948      16.32935309
Pd      11.27297661       3.16281121      16.56942249
Pd       2.89753978       9.89380838      16.37075208
Pd       6.96555285       7.00362296      15.95913805
Pd       7.22429652      12.99122604      16.28581024
Pd       9.74422212       6.83960082      15.96612379
Pd       7.52133432       3.39214754      16.42914769
Pd       1.06403240       1.55572851      16.07205394
Pd       4.23489688       7.21327299      15.94122639
O        9.34727325       2.94423444      17.24100257
O       10.69845002      10.57925634      15.96097032
O       12.45340962      12.70151798      15.29988739
O       11.95900674       1.43595531      17.28595501
O       11.03420289       0.53689385      17.71449482
O        4.40745608       8.87346682      17.07205386
O        4.42370715       1.27359517      15.18054302
O        2.29699459       1.67956456      17.64678539
O        8.99908497      12.80005729      17.46444784
O        1.45521859      11.16614358      15.76809361
O        3.07754110       0.50012147      17.70335573
O        2.32335655       5.54239368      17.08105014
O        8.10361765       5.28107892      16.05308045
O        7.45125539       8.58880719      17.07960575
O        5.65773639       3.90001623      15.66894955
O       13.25323362       3.10736385      15.96093864
O       11.09157988       5.10891378      15.99674670
O       13.57150085       7.99876533      16.88198573
O        7.00819942       1.30922854      16.89218175
O        7.55508240      11.04552651      15.92229205
