115
Lattice="13.75323 0.0 0.0 0.0 13.75323 0.0 0.0 0.0 23.89" Properties=species:S:1:pos:R:3 entry_id=0 rank=8 energy=-568.3948364257812 parent_id=-1 pbc="T T F"
Pd       0.00000000       0.00000000      10.00000000
Pd       2.75064538       0.00000000      10.00000000
Pd       5.50129076       0.00000000      10.00000000
Pd       8.25193614       0.00000000      10.00000000
Pd      11.00258152       0.00000000      10.00000000
Pd       0.00000000       2.75064538      10.00000000
Pd       2.75064538       2.75064538      10.00000000
Pd       5.50129076       2.75064538      10.00000000
Pd       8.25193614       2.75064538      10.00000000
Pd      11.00258152       2.75064538      10.00000000
Pd       0.00000000       5.50129076      10.00000000
Pd       2.75064538       5.50129076      10.00000000
Pd       5.50129076       5.50129076      10.00000000
Pd       8.25193614       5.50129076      10.00000000
Pd      11.00258152       5.50129076      10.00000000
Pd       0.00000000       8.25193614      10.00000000
Pd       2.75064538       8.25193614      10.00000000
Pd       5.50129076       8.25193614      10.00000000
Pd       8.25193614       8.25193614      10.00000000
Pd      11.00258152       8.25193614      10.00000000
Pd       0.00000000      11.00258152      10.00000000
Pd       2.75064538      11.00258152      10.00000000
Pd       5.50129076      11.00258152      10.00000000
Pd       8.25193614      11.00258152      10.00000000
Pd      11.00258152      11.00258152      10.00000000
Pd       1.34624755       1.38084750      12.08140266
Pd       4.09710389       1.39052148      12.02479012
Pd       6.82981654       1.36955100      12.02877126
Pd       9.57512057       1.39592898      11.89594876
Pd      12.38684272       1.37174114      11.92044161
Pd       1.36477222       4.11653529      11.98603920
Pd       4.10062678       4.12336316      12.03936584
Pd       6.80964797       4.10127536      12.01947470
Pd       9.56728621       4.13975942      11.94281254
Pd      12.36578195       4.13265160      11.93417299
Pd       1.37110082       6.89256210      11.94010419
Pd       4.13935064       6.87026939      11.96482277
Pd       6.87097415       6.85831372      11.95140951
Pd       9.64205429       6.82915781      11.94515418
Pd      12.39111484       6.85622887      11.94896407
Pd       1.35620714       9.70034342      11.99804880
Pd       4.11777592       9.66324146      11.95099537
Pd       6.89476706       9.64088005      11.95142944
Pd       9.64982872       9.59779534      11.89439304
Pd      12.42487279       9.60955999      11.94161946
Pd       1.38044107      12.43193039      12.05375389
Pd       4.10022422      12.39283888      12.00408105
Pd       6.86816975      12.39901143      11.97280504
Pd       9.63028672      12.36702810      11.91406436
Pd      12.44377093      12.34106355      11.97883192
Pd      13.68382827      13.72507774      14.13497683
Pd       2.74104718       0.13690168      14.18798105
Pd       5.57274970      13.58410657      14.03502846
Pd       8.32209644       0.10873863      14.02897555
Pd      11.00944646       0.06540779      13.76260286
Pd      13.56160688       2.74995394      13.99054556
Pd       2.60935779       2.89248108      14.11903635
Pd       5.38704417       2.66350409      14.17473059
Pd       8.19635968       2.74739899      13.98467948
Pd      10.87233207       2.71373247      13.87796897
Pd       0.02066037       5.52365153      13.94649461
Pd       2.72280727       5.58686434      14.00783806
Pd       5.45644864       5.48204382      14.06965453
Pd       8.27768272       5.48392024      14.03245483
Pd      11.00184870       5.39662314      13.97230521
Pd       0.04971316       8.32457642      13.97807506
Pd       2.75359904       8.29351573      13.88783015
Pd       5.49570040       8.26292547      13.94878232
Pd       8.40018647       8.22067484      13.82455963
Pd      11.08213875       8.19516471      13.93714462
Pd      13.58924998      10.96820418      14.50068015
Pd       2.74687484      11.08184894      14.01333271
Pd       5.55692322      10.90584244      13.95548731
Pd       8.34038440      11.01504229      13.92443628
Pd      11.03614708      10.88290920      13.82899403
Pd      12.43757980       6.59286736      16.10454437
Pd       8.74023490       9.62199813      16.23413172
Pd       2.03065288      12.72897675      16.64122094
Pd       1.41924847       7.01586485      16.25546375
Pd      11.87895689       9.39104234      16.30172315
Pd       8.32078406       1.37680414      16.95461179
Pd       4.98990049       0.37835044      17.18450295
Pd       5.65050840       9.65138388      17.05434198
Pd       4.39385288      11.78171738      16.13854184
Pd      10.86719017      12.42525522      15.91205568
Pd       0.84945950       4.28627890      16.30383705
Pd       3.88142342       4.40498678      16.31826682
Pd      11.15785128       3.15620720      16.54907004
Pd       2.99013568       9.51110473      16.27593794
Pd       7.25969231       7.14730622      16.87910923
Pd       6.97185677      11.97815087      16.16843111
Pd       9.73205504       6.98604080      15.97462780
Pd       7.44863915       3.72304371      16.42948423
Pd       1.07457695       1.49119168      16.04520699
Pd       4.09055237       7.08730788      15.90612638
O        9.23783461       3.11399580      17.10111816
O       10.39578604      10.53341939      16.84739490
O       12.86565049      12.54158180      15.65830404
O       11.40036957       1.29083750      17.22752479
O       10.36253129       0.44716556      17.13444981
O        5.25440942       7.65420518      17.37630456
O        4.40729913       1.01618429      15.22007857
O        2.39081038       1.64074782      17.53605880
O        8.88604449      12.46472955      15.43788882
O        1.53672614      10.98904359      15.78942746
O        3.00991439       0.38460495      17.70400267
O        2.31056848       5.38257966      17.01125274
O        6.98073134       5.58704154      15.66940292
O        7.53892835       8.89926053      17.78026100
O        5.52329425       3.35578006      16.08823619
O       13.14557442       2.98274673      16.01060286
O       11.03826503       5.17652391      16.05771646
O       13.54550160       8.25305255      16.06253586
O        6.93517205       0.02468333      17.15673181
O        7.07532627       8.65272493      15.26881672
