115
Lattice="13.75323 0.0 0.0 0.0 13.75323 0.0 0.0 0.0 23.89" Properties=species:S:1:pos:R:3 entry_id=5 rank=2 energy=-571.3400268554688 parent_id=4 pbc="T T F"
Pd       0.00000000       0.00000000      10.00000000
Pd       2.75064538       0.00000000      10.00000000
Pd       5.50129076       0.00000000      10.00000000
Pd       8.25193614       0.00000000      10.00000000
Pd      11.00258152       0.00000000      10.00000000
Pd       0.00000000       2.75064538      10.00000000
Pd       2.75064538       2.75064538      10.00000000
Pd       5.50129076       2.75064538      10.00000000
Pd       8.25193614       2.75064538      10.00000000
Pd      11.00258152       2.75064538      10.00000000
Pd       0.00000000       5.50129076      10.00000000
Pd       2.75064538       5.50129076      10.00000000
Pd       5.50129076       5.50129076      10.00000000
Pd       8.25193614       5.50129076      10.00000000
Pd      11.00258152       5.50129076      10.00000000
Pd       0.00000000       8.25193614      10.00000000
Pd       2.75064538       8.25193614      10.00000000
Pd       5.50129076       8.25193614      10.00000000
Pd       8.25193614       8.25193614      10.00000000
Pd      11.00258152       8.25193614      10.00000000
Pd       0.00000000      11.00258152      10.00000000
Pd       2.75064538      11.00258152      10.00000000
Pd       5.50129076      11.00258152      10.00000000
Pd       8.25193614      11.00258152      10.00000000
Pd      11.00258152      11.00258152      10.00000000
Pd       1.34294947       1.40357284      12.05927574
Pd       4.06940406       1.40136179      11.97604203
Pd       6.82136720       1.37639162      11.96079667
Pd       9.57512057       1.39592898      11.89594876
Pd      12.38684272       1.37174114      11.92044161
Pd       1.37891741       4.12755921      12.01219517
Pd       4.08366159       4.14204362      12.00942710
Pd       6.81183934       4.12270354      12.00035546
Pd       9.56728621       4.13975942      11.94281254
Pd      12.36578195       4.13265160      11.93417299
Pd       1.37110082       6.89256210      11.94010419
Pd       4.13935064       6.87026939      11.96482277
Pd       6.87097415       6.85831372      11.95140951
Pd       9.64205429       6.82915781      11.94515418
Pd      12.39111484       6.85622887      11.94896407
Pd       1.36463595       9.68381778      12.00361208
Pd       4.11777592       9.66324146      11.95099537
Pd       6.89476706       9.64088005      11.95142944
Pd       9.64982872       9.59779534      11.89439304
Pd      12.42487279       9.60955999      11.94161946
Pd       1.34920640      12.43798693      12.02567419
Pd       4.08340725      12.41115084      11.96706053
Pd       6.86816975      12.39901143      11.97280504
Pd       9.63028672      12.36702810      11.91406436
Pd      12.38788909      12.34782328      11.99399160
Pd      13.62973421       0.00983495      14.06380460
Pd       2.72998675       0.12940752      14.13386892
Pd       5.50754405      13.70739506      13.94412976
Pd       8.26788436       0.03981586      13.98132961
Pd      10.92076822       0.00301997      13.94957116
Pd      13.57318576       2.79159202      13.94085194
Pd       2.56697727       2.93642356      14.24221581
Pd       5.42112996       2.67020745      13.98861936
Pd       8.22074201       2.71103099      13.89814134
Pd      10.88944505       2.67517285      13.85574906
Pd       0.04699327       5.53503228      13.97862574
Pd       2.77245527       5.63162361      14.01843017
Pd       5.53531613       5.54547570      14.09778231
Pd       8.28584123       5.46011163      14.01284700
Pd      11.03905719       5.40204333      13.96045387
Pd       0.08181518       8.23777302      13.98578198
Pd       2.84812946       8.35601574      13.93356246
Pd       5.63331002       8.29049508      13.93085684
Pd       8.35569003       8.26160113      13.95758864
Pd      11.09832552       8.22340909      13.89897021
Pd      13.64271666      10.90333026      14.27306278
Pd       2.74878021      11.13162209      13.96197121
Pd       5.47720203      10.98771642      13.87998435
Pd       8.20832226      11.04453850      14.03893107
Pd      10.94026262      10.97884023      13.88407838
Pd      12.54722152       6.30092473      16.39857556
Pd       9.18955831       9.57401120      16.31876926
Pd       1.83732293      12.76963727      16.56343101
Pd       1.62668755       7.15964549      16.00565086
Pd      12.38132685       9.05605395      16.24207867
Pd       9.28488485       0.56260980      16.76220578
Pd       4.53185346       1.01520073      17.09215203
Pd       5.94073747      10.07828228      16.42726659
Pd       4.35895546      12.22348282      15.98840514
Pd      11.36834115      12.39758349      16.44965569
Pd       0.86780465       4.41920703      16.42693299
Pd       3.81679696       4.63212662      16.38586277
Pd      11.19340940       3.06395757      16.48735438
Pd       3.00549851       9.78520839      16.35534223
Pd       7.30678683       6.97218830      16.26477509
Pd       6.89066848      13.33376543      16.28191139
Pd       9.95448746       7.03270983      15.98956851
Pd       7.32332417       3.25414459      16.36726933
Pd       0.78216983       1.50288824      16.10675016
Pd       4.45262174       7.17171026      15.99546688
O        9.21280768       2.54757500      16.83038239
O       10.97479296      10.42665343      15.88770018
O       13.17962141      12.47200260      15.61586387
O       12.09908307       1.42120115      17.28021612
O       11.29615415       0.40694327      17.61810489
O        4.54143802       8.84691596      17.10104920
O        3.91001688       1.59808002      15.13613039
O        1.83381694       1.55184222      17.81850107
O        9.56407826      12.44562851      17.11876338
O        1.54955922      10.96285512      15.69438990
O        2.69680737       0.44260496      17.74111842
O        2.27055651       5.53129868      17.18146679
O        7.97320315       5.11296109      15.98454295
O        7.48633783       8.80740853      16.94542988
O        5.53035018       3.96236228      15.61842149
O       13.18834028       3.16530724      15.94463112
O       11.04842481       5.06470739      15.99956987
O       13.68687675       7.77761331      16.97324193
O        6.44298234       1.43072512      16.83348117
O        7.30708060      11.43266441      15.88723236
