115
Lattice="13.75323 0.0 0.0 0.0 13.75323 0.0 0.0 0.0 23.89" Properties=species:S:1:pos:R:3 entry_id=6 rank=5 energy=-571.324462890625 parent_id=5 pbc="T T F"
Pd       0.00000000       0.00000000      10.00000000
Pd       2.75064538       0.00000000      10.00000000
Pd       5.50129076       0.00000000      10.00000000
Pd       8.25193614       0.00000000      10.00000000
Pd      11.00258152       0.00000000      10.00000000
Pd       0.00000000       2.75064538      10.00000000
Pd       2.75064538       2.75064538      10.00000000
Pd       5.50129076       2.75064538      10.00000000
Pd       8.25193614       2.75064538      10.00000000
Pd      11.00258152       2.75064538      10.00000000
Pd       0.00000000       5.50129076      10.00000000
Pd       2.75064538       5.50129076      10.00000000
Pd       5.50129076       5.50129076      10.00000000
Pd       8.25193614       5.50129076      10.00000000
Pd      11.00258152       5.50129076      10.00000000
Pd       0.00000000       8.25193614      10.00000000
Pd       2.75064538       8.25193614      10.00000000
Pd       5.50129076       8.25193614      10.00000000
Pd       8.25193614       8.25193614      10.00000000
Pd      11.00258152       8.25193614      10.00000000
Pd       0.00000000      11.00258152      10.00000000
Pd       2.75064538      11.00258152      10.00000000
Pd       5.50129076      11.00258152      10.00000000
Pd       8.25193614      11.00258152      10.00000000
Pd      11.00258152      11.00258152      10.00000000
Pd       1.33880055       1.40427096      12.05703998
Pd       4.06301023       1.40195503      11.96831682
Pd       6.82103955       1.37898757      11.95536896
Pd       9.57512057       1.39592898      11.89594876
Pd      12.38684272       1.37174114      11.92044161
Pd       1.37776775       4.12782339      12.01248849
Pd       4.08285074       4.14461843      12.00339825
Pd       6.81369349       4.12389884      11.99925339
Pd       9.56728621       4.13975942      11.94281254
Pd      12.36578195       4.13265160      11.93417299
Pd       1.37110082       6.89256210      11.94010419
Pd       4.13935064       6.87026939      11.96482277
Pd       6.87097415       6.85831372      11.95140951
Pd       9.64205429       6.82915781      11.94515418
Pd      12.39111484       6.85622887      11.94896407
Pd       1.36564502       9.68390487      12.00514380
Pd       4.11777592       9.66324146      11.95099537
Pd       6.89476706       9.64088005      11.95142944
Pd       9.64982872       9.59779534      11.89439304
Pd      12.42487279       9.60955999      11.94161946
Pd       1.35561163      12.43593538      12.03237600
Pd       4.08733080      12.39945097      11.96808224
Pd       6.86816975      12.39901143      11.97280504
Pd       9.63028672      12.36702810      11.91406436
Pd      12.39327792      12.35095519      11.98652625
Pd      13.62065493       0.01089953      14.05994356
Pd       2.70809226       0.12052599      14.13184574
Pd       5.47161781      13.73074657      13.92651353
Pd       8.24817860       0.03434811      13.97367187
Pd      10.91031260       0.01203363      13.93367062
Pd      13.57578723       2.79625480      13.94300823
Pd       2.57385526       2.92534684      14.23256571
Pd       5.42356426       2.68292071      13.97403238
Pd       8.22375435       2.70202995      13.90337661
Pd      10.89344393       2.68143985      13.85274377
Pd       0.04330991       5.53766477      13.98128823
Pd       2.76800365       5.62379886      14.01631762
Pd       5.52960810       5.54963313      14.09524257
Pd       8.28236117       5.44761822      14.01111716
Pd      11.03857490       5.40399941      13.95829239
Pd       0.07977896       8.23792952      13.98790489
Pd       2.84333000       8.34922917      13.93730904
Pd       5.62098006       8.29259925      13.93321105
Pd       8.34868464       8.24777277      13.94142127
Pd      11.09507713       8.22004754      13.90293251
Pd      13.66657996      10.90382170      14.27162036
Pd       2.76639221      11.11560502      13.96961166
Pd       5.51149449      11.01150822      13.90977203
Pd       8.27404382      11.03299693      14.01924862
Pd      10.97847879      10.97984681      13.87707815
Pd      12.53364278       6.28007209      16.41194062
Pd       9.18335060       9.57672944      16.27835821
Pd       1.78981238      12.77651773      16.56687160
Pd       1.61618566       7.14358798      16.00453990
Pd      12.39471303       9.02554914      16.25281756
Pd       9.24465276       0.56912632      16.62702055
Pd       4.50405533       1.03163702      17.10484070
Pd       5.83605300      10.02978814      16.44163114
Pd       4.29627289      12.23123756      16.00562820
Pd      11.34696818      12.39008698      16.37442439
Pd       0.85258552       4.40189440      16.42411089
Pd       3.80298886       4.61441506      16.38253891
Pd      11.17128569       3.05733557      16.48982059
Pd       2.97755810       9.75570994      16.38964997
Pd       7.28383738       6.99097596      16.24392089
Pd       6.80643402      13.34818529      16.24794494
Pd       9.93353379       7.01129204      15.98194906
Pd       7.30514037       3.26019061      16.36857504
Pd       0.76480881       1.49989224      16.10659761
Pd       4.43636229       7.15607878      15.99988630
O        9.18927421       2.55042107      16.82376850
O       10.99179142      10.38523123      15.87558381
O       13.19573735      12.47311234      15.62564775
O       12.03758480       1.40089645      17.28416827
O       11.21552904       0.38436428      17.56589543
O        4.48427155       8.78761120      17.17690886
O        3.91850053       1.57934701      15.12223139
O        1.80518545       1.56025363      17.82500980
O        9.48742038      12.42291525      16.88807341
O        1.55537595      10.95395518      15.69876628
O        2.66627392       0.45032623      17.74629204
O        2.25630963       5.51138839      17.17778785
O        7.95413545       5.12524294      15.98487457
O        7.46074768       8.84186816      16.89052249
O        5.51899844       3.96015658      15.61250114
O       13.16803171       3.14917721      15.95137371
O       11.03158764       5.05477979      15.99888579
O       13.68640214       7.74294942      16.99703505
O        6.42226478       1.43928818      16.86520879
O        7.06677923      11.43888854      15.71340802
