115
Lattice="13.75323 0.0 0.0 0.0 13.75323 0.0 0.0 0.0 23.89" Properties=species:S:1:pos:R:3 entry_id=3 rank=3 energy=-571.3385009765625 parent_id=1 pbc="T T F"
Pd       0.00000000       0.00000000      10.00000000
Pd       2.75064538       0.00000000      10.00000000
Pd       5.50129076       0.00000000      10.00000000
Pd       8.25193614       0.00000000      10.00000000
Pd      11.00258152       0.00000000      10.00000000
Pd       0.00000000       2.75064538      10.00000000
Pd       2.75064538       2.75064538      10.00000000
Pd       5.50129076       2.75064538      10.00000000
Pd       8.25193614       2.75064538      10.00000000
Pd      11.00258152       2.75064538      10.00000000
Pd       0.00000000       5.50129076      10.00000000
Pd       2.75064538       5.50129076      10.00000000
Pd       5.50129076       5.50129076      10.00000000
Pd       8.25193614       5.50129076      10.00000000
Pd      11.00258152       5.50129076      10.00000000
Pd       0.00000000       8.25193614      10.00000000
Pd       2.75064538       8.25193614      10.00000000
Pd       5.50129076       8.25193614      10.00000000
Pd       8.25193614       8.25193614      10.00000000
Pd      11.00258152       8.25193614      10.00000000
Pd       0.00000000      11.00258152      10.00000000
Pd       2.75064538      11.00258152      10.00000000
Pd       5.50129076      11.00258152      10.00000000
Pd       8.25193614      11.00258152      10.00000000
Pd      11.00258152      11.00258152      10.00000000
Pd       1.34138621       1.40719348      12.05985419
Pd       4.06488953       1.40099352      11.97487890
Pd       6.81796447       1.37299789      11.95926347
Pd       9.57512057       1.39592898      11.89594876
Pd      12.38684272       1.37174114      11.92044161
Pd       1.38014709       4.12912696      12.01058813
Pd       4.08437528       4.14138549      12.00949513
Pd       6.81262701       4.12032543      11.99779711
Pd       9.56728621       4.13975942      11.94281254
Pd      12.36578195       4.13265160      11.93417299
Pd       1.37110082       6.89256210      11.94010419
Pd       4.13935064       6.87026939      11.96482277
Pd       6.87097415       6.85831372      11.95140951
Pd       9.64205429       6.82915781      11.94515418
Pd      12.39111484       6.85622887      11.94896407
Pd       1.36477369       9.68705040      12.00571500
Pd       4.11777592       9.66324146      11.95099537
Pd       6.89476706       9.64088005      11.95142944
Pd       9.64982872       9.59779534      11.89439304
Pd      12.42487279       9.60955999      11.94161946
Pd       1.34797947      12.44147490      12.02643290
Pd       4.08216643      12.41087631      11.96538173
Pd       6.86816975      12.39901143      11.97280504
Pd       9.63028672      12.36702810      11.91406436
Pd      12.38701415      12.34826232      11.99275665
Pd      13.62683947       0.01071283      14.06589030
Pd       2.72506159       0.13020525      14.13607892
Pd       5.49983684      13.70165685      13.94520340
Pd       8.26128263       0.03393576      13.98479474
Pd      10.91759293       0.00349542      13.94593635
Pd      13.57122816       2.78802272      13.94261451
Pd       2.56142478       2.93819276      14.24906399
Pd       5.41757237       2.66242045      13.98365934
Pd       8.21690600       2.70142662      13.89617587
Pd      10.88659357       2.67581251      13.85915261
Pd       0.05461926       5.52970441      13.98006750
Pd       2.77882589       5.63038689      14.01685093
Pd       5.54134710       5.53859914      14.09325769
Pd       8.29173173       5.44778805      14.00931069
Pd      11.04898188       5.40084811      13.95828723
Pd       0.08269340       8.23207792      13.98554134
Pd       2.84631965       8.35494254      13.93049367
Pd       5.63259987       8.28676414      13.92824028
Pd       8.35529827       8.25333367      13.95203759
Pd      11.09911600       8.21992991      13.90340511
Pd      13.64862140      10.89987055      14.26279753
Pd       2.75396453      11.13441369      13.96284424
Pd       5.47748941      10.98614675      13.88247106
Pd       8.20799595      11.03968642      14.03692146
Pd      10.94049002      10.97465649      13.88608190
Pd      12.55377407       6.30729140      16.39985485
Pd       9.19621470       9.56481909      16.30583551
Pd       1.81308429      12.76398282      16.55492958
Pd       1.63305997       7.15073558      16.00559279
Pd      12.40004593       9.05820402      16.24278396
Pd       9.28520268       0.56441323      16.71497521
Pd       4.52137149       1.00909901      17.09304894
Pd       5.93255632      10.06955639      16.42602164
Pd       4.34534044      12.21805203      15.99712131
Pd      11.38123261      12.39897101      16.42941300
Pd       0.86577498       4.41245638      16.42840413
Pd       3.82099062       4.62118486      16.38180551
Pd      11.18504411       3.06831856      16.49175558
Pd       3.00604446       9.77285935      16.35400596
Pd       7.30011513       6.96577271      16.25331858
Pd       6.87489425      13.33113372      16.28509409
Pd       9.94603039       7.01189914      15.98225017
Pd       7.32061012       3.24646465      16.36675769
Pd       0.76080756       1.50384730      16.12389979
Pd       4.45364070       7.16082024      15.98864253
O        9.20826926       2.54678671      16.83261202
O       10.98722074      10.41781061      15.88786667
O       13.20472698      12.46878090      15.62245023
O       12.08763585       1.42652473      17.30089747
O       11.28341020       0.40514216      17.61186118
O        4.54020516       8.83077007      17.10219625
O        3.90296808       1.59436346      15.13513738
O        1.82335893       1.53700351      17.82936788
O        9.56392118      12.44387008      17.05148585
O        1.55271953      10.94765156      15.69068141
O        2.68664610       0.42869581      17.73605010
O        2.27559718       5.51932899      17.17894036
O        7.97209428       5.10518015      15.98100155
O        7.48792230       8.80357258      16.92701612
O        5.53220448       3.95000873      15.61334455
O       13.17831248       3.16717221      15.94604748
O       11.05173200       5.07294622      16.00166534
O       13.70101354       7.77891421      16.97761206
O        6.43244548       1.42647332      16.84320578
O        7.28453133      11.43114769      15.87690262
