115
Lattice="13.75323 0.0 0.0 0.0 13.75323 0.0 0.0 0.0 23.89" Properties=species:S:1:pos:R:3 entry_id=4 rank=4 energy=-571.3365478515625 parent_id=3 pbc="T T F"
Pd       0.00000000       0.00000000      10.00000000
Pd       2.75064538       0.00000000      10.00000000
Pd       5.50129076       0.00000000      10.00000000
Pd       8.25193614       0.00000000      10.00000000
Pd      11.00258152       0.00000000      10.00000000
Pd       0.00000000       2.75064538      10.00000000
Pd       2.75064538       2.75064538      10.00000000
Pd       5.50129076       2.75064538      10.00000000
Pd       8.25193614       2.75064538      10.00000000
Pd      11.00258152       2.75064538      10.00000000
Pd       0.00000000       5.50129076      10.00000000
Pd       2.75064538       5.50129076      10.00000000
Pd       5.50129076       5.50129076      10.00000000
Pd       8.25193614       5.50129076      10.00000000
Pd      11.00258152       5.50129076      10.00000000
Pd       0.00000000       8.25193614      10.00000000
Pd       2.75064538       8.25193614      10.00000000
Pd       5.50129076       8.25193614      10.00000000
Pd       8.25193614       8.25193614      10.00000000
Pd      11.00258152       8.25193614      10.00000000
Pd       0.00000000      11.00258152      10.00000000
Pd       2.75064538      11.00258152      10.00000000
Pd       5.50129076      11.00258152      10.00000000
Pd       8.25193614      11.00258152      10.00000000
Pd      11.00258152      11.00258152      10.00000000
Pd       1.33909982       1.41019573      12.05710833
Pd       4.06781738       1.40530612      11.97131494
Pd       6.81959362       1.37645001      11.96405110
Pd       9.57512057       1.39592898      11.89594876
Pd      12.38684272       1.37174114      11.92044161
Pd       1.37845793       4.13200734      12.01171483
Pd       4.08420819       4.14582206      12.00720083
Pd       6.81240346       4.12038220      12.00302379
Pd       9.56728621       4.13975942      11.94281254
Pd      12.36578195       4.13265160      11.93417299
Pd       1.37110082       6.89256210      11.94010419
Pd       4.13935064       6.87026939      11.96482277
Pd       6.87097415       6.85831372      11.95140951
Pd       9.64205429       6.82915781      11.94515418
Pd      12.39111484       6.85622887      11.94896407
Pd       1.36460555       9.68347198      12.00045778
Pd       4.11777592       9.66324146      11.95099537
Pd       6.89476706       9.64088005      11.95142944
Pd       9.64982872       9.59779534      11.89439304
Pd      12.42487279       9.60955999      11.94161946
Pd       1.34745056      12.44215795      12.02503383
Pd       4.08238315      12.41239164      11.96399603
Pd       6.86816975      12.39901143      11.97280504
Pd       9.63028672      12.36702810      11.91406436
Pd      12.38843186      12.35080852      11.99614413
Pd      13.63533525       0.02332360      14.06835658
Pd       2.73274802       0.12723634      14.11875283
Pd       5.50240044      13.70435439      13.94431711
Pd       8.26166476       0.03290914      13.98629262
Pd      10.92004410       0.00637444      13.95165698
Pd      13.56217515       2.79303409      13.94492834
Pd       2.54598462       2.93832399      14.24086262
Pd       5.40498318       2.66704212      13.98983291
Pd       8.21426262       2.70267124      13.90501871
Pd      10.88265966       2.67883933      13.84986744
Pd       0.04639842       5.53289195      13.98330218
Pd       2.76961218       5.63220491      14.02239888
Pd       5.52856617       5.54513240      14.09632409
Pd       8.28504842       5.45165336      14.01279077
Pd      11.03982665       5.40439062      13.95944918
Pd       0.08179262       8.23272987      13.98385469
Pd       2.84618850       8.35363607      13.93191728
Pd       5.62904320       8.29168206      13.93187293
Pd       8.35350690       8.25599928      13.95289754
Pd      11.09858852       8.22319457      13.90639479
Pd      13.64444542      10.90107378      14.25022272
Pd       2.74743922      11.12681257      13.95627802
Pd       5.47156295      10.99057159      13.88441536
Pd       8.20186342      11.04156630      14.04356671
Pd      10.93750179      10.98034409      13.88373409
Pd      12.54052856       6.32302970      16.39955122
Pd       9.20485872       9.58203987      16.30287926
Pd       1.75835779      12.77461563      16.51851926
Pd       1.62942408       7.15873671      16.00867637
Pd      12.40613282       9.07494014      16.24221129
Pd       9.28208283       0.55493653      16.69080929
Pd       4.49222685       1.00509180      17.08929179
Pd       5.93183158      10.08853831      16.43084969
Pd       4.31779609      12.22605778      15.99051296
Pd      11.39908790      12.40754315      16.44204438
Pd       0.84430200       4.43329629      16.44735799
Pd       3.79110685       4.63808562      16.39814172
Pd      11.16196127       3.07809452      16.47579820
Pd       3.00493536       9.77212993      16.35720762
Pd       7.29393451       6.98126540      16.25961678
Pd       6.86085421      13.34312516      16.28789083
Pd       9.93623702       7.02404487      15.98661528
Pd       7.28198523       3.25158480      16.36201374
Pd       0.74850433       1.54640203      16.14375905
Pd       4.45362542       7.17110293      16.00129165
O        9.18150667       2.53951574      16.77959653
O       10.99791866      10.43549304      15.88584275
O       13.22941661      12.47978133      15.63093841
O       12.07916539       1.44535103      17.28859092
O       11.28415067       0.41941661      17.60457515
O        4.54516340       8.84545016      17.11045127
O        3.88045759       1.60367404      15.13262902
O        1.80052741       1.51381652      17.85622190
O        9.58094964      12.44394094      17.06348057
O        1.54679403      10.93014000      15.68061603
O        2.66145019       0.41040961      17.72775984
O        2.25136378       5.53732870      17.20436880
O        7.93500057       5.11252319      15.97933030
O        7.49338141       8.82190294      16.92194642
O        5.49360806       3.96205219      15.61899373
O       13.15735111       3.19466213      15.94301754
O       11.03343740       5.09069992      16.00407280
O       13.69695808       7.78733316      16.97682051
O        6.40372697       1.43293064      16.84829671
O        7.28497380      11.44801024      15.88384273
