115
Lattice="13.75323 0.0 0.0 0.0 13.75323 0.0 0.0 0.0 23.89" Properties=species:S:1:pos:R:3 entry_id=1 rank=6 energy=-571.1240234375 parent_id=0 pbc="T T F"
Pd       0.00000000       0.00000000      10.00000000
Pd       2.75064538       0.00000000      10.00000000
Pd       5.50129076       0.00000000      10.00000000
Pd       8.25193614       0.00000000      10.00000000
Pd      11.00258152       0.00000000      10.00000000
Pd       0.00000000       2.75064538      10.00000000
Pd       2.75064538       2.75064538      10.00000000
Pd       5.50129076       2.75064538      10.00000000
Pd       8.25193614       2.75064538      10.00000000
Pd      11.00258152       2.75064538      10.00000000
Pd       0.00000000       5.50129076      10.00000000
Pd       2.75064538       5.50129076      10.00000000
Pd       5.50129076       5.50129076      10.00000000
Pd       8.25193614       5.50129076      10.00000000
Pd      11.00258152       5.50129076      10.00000000
Pd       0.00000000       8.25193614      10.00000000
Pd       2.75064538       8.25193614      10.00000000
Pd       5.50129076       8.25193614      10.00000000
Pd       8.25193614       8.25193614      10.00000000
Pd      11.00258152       8.25193614      10.00000000
Pd       0.00000000      11.00258152      10.00000000
Pd       2.75064538      11.00258152      10.00000000
Pd       5.50129076      11.00258152      10.00000000
Pd       8.25193614      11.00258152      10.00000000
Pd      11.00258152      11.00258152      10.00000000
Pd       1.33590913       1.40076893      12.07126728
Pd       4.06323567       1.39553439      11.96356624
Pd       6.83634948       1.36274534      11.97123961
Pd       9.57512057       1.39592898      11.89594876
Pd      12.38684272       1.37174114      11.92044161
Pd       1.37874065       4.11596337      12.00802780
Pd       4.08212856       4.14401395      12.00778556
Pd       6.81649346       4.10939047      12.00400689
Pd       9.56728621       4.13975942      11.94281254
Pd      12.36578195       4.13265160      11.93417299
Pd       1.37110082       6.89256210      11.94010419
Pd       4.13935064       6.87026939      11.96482277
Pd       6.87097415       6.85831372      11.95140951
Pd       9.64205429       6.82915781      11.94515418
Pd      12.39111484       6.85622887      11.94896407
Pd       1.36873215       9.67838359      12.00530559
Pd       4.11777592       9.66324146      11.95099537
Pd       6.89476706       9.64088005      11.95142944
Pd       9.64982872       9.59779534      11.89439304
Pd      12.42487279       9.60955999      11.94161946
Pd       1.36544833      12.43193772      12.03371402
Pd       4.08678764      12.38817748      11.97164872
Pd       6.86816975      12.39901143      11.97280504
Pd       9.63028672      12.36702810      11.91406436
Pd      12.41892456      12.34301678      11.97650547
Pd      13.67743505       0.01565026      14.08205487
Pd       2.73391658       0.11139454      14.13233480
Pd       5.47562948      13.72574927      13.91570393
Pd       8.26816689      13.69975458      13.95601436
Pd      10.98547464       0.09107896      13.76322435
Pd      13.52193223       2.77853155      13.97316494
Pd       2.52721852       2.92854751      14.24116274
Pd       5.39569646       2.65582955      13.96913883
Pd       8.18808327       2.66247920      13.95667159
Pd      10.84482955       2.72291297      13.91508644
Pd       0.06598958       5.50010133      13.94997011
Pd       2.76140990       5.62261022      14.03244312
Pd       5.52413261       5.55264406      14.08917575
Pd       8.27958817       5.42593793      14.00125148
Pd      11.03540818       5.40207493      13.97082581
Pd       0.07902832       8.25772948      13.95535741
Pd       2.83165301       8.32703891      13.98342349
Pd       5.60214488       8.28942975      13.93895584
Pd       8.33447210       8.24239961      13.95696747
Pd      11.05309161       8.21899495      13.92972985
Pd      13.61019504      10.93768119      14.27620982
Pd       2.75026881      11.09113225      13.97961896
Pd       5.51874868      11.02057239      13.92593759
Pd       8.29327528      10.96200507      14.08613375
Pd      10.96721736      10.92700899      13.84541285
Pd      12.52332648       6.54664768      16.11409045
Pd       9.05377379       9.58350910      16.47013743
Pd       1.75302354      12.79379657      16.56635875
Pd       1.61693774       7.03454818      16.27749906
Pd      12.10011079       9.38011944      16.20864325
Pd       9.18119027       1.04985067      16.29867572
Pd       4.45631978       1.06576129      17.13101787
Pd       5.68133079      10.01801832      16.47119170
Pd       4.24049929      12.25811564      15.99933803
Pd      11.13944366      12.51905766      15.94100582
Pd       0.81906904       4.38187994      16.42340451
Pd       3.83772244       4.55056307      16.36856883
Pd      11.13011641       3.18118640      16.61771003
Pd       2.87699343       9.75382662      16.42287772
Pd       7.18373119       6.99136515      16.22034012
Pd       6.71448655      13.38464724      16.29954698
Pd       9.83225529       6.99517457      15.99090271
Pd       7.28925115       3.32864310      16.45187335
Pd       0.70698260       1.53202109      16.16998051
Pd       4.37583143       7.13668276      16.01330337
O        9.16297382       2.82977908      17.13009899
O       10.70416263      10.61164097      16.72190076
O       13.09326490      12.48884686      15.61261023
O       11.77800341       1.44439746      17.47465657
O       10.87811140       0.45510988      17.47600342
O        4.36084956       8.75612753      17.22093632
O        3.86693247       1.60619585      15.14745682
O        1.74250632       1.54262938      17.88761999
O        9.17519988      12.88848562      15.75203696
O        1.49658295      10.97809824      15.68343509
O        2.62041589       0.45164865      17.76230509
O        2.29874778       5.38646238      17.21696525
O        7.93577261       5.16889770      15.98621598
O        7.28811772       8.82341386      16.88660855
O        5.54350991       3.93808898      15.58030682
O       13.09177868       3.15008958      15.99506094
O       11.05626733       5.19080380      16.06334096
O       13.68362393       8.17059455      16.03671587
O        6.38047869       1.48354503      16.96898999
O        6.85941780      11.44579682      15.68275528
