115
Lattice="13.75323 0.0 0.0 0.0 13.75323 0.0 0.0 0.0 23.89" Properties=species:S:1:pos:R:3 entry_id=16 rank=0 energy=-573.54443359375 parent_id=15 pbc="T T F"
Pd       0.00000000       0.00000000      10.00000000
Pd       2.75064538       0.00000000      10.00000000
Pd       5.50129076       0.00000000      10.00000000
Pd       8.25193614       0.00000000      10.00000000
Pd      11.00258152       0.00000000      10.00000000
Pd       0.00000000       2.75064538      10.00000000
Pd       2.75064538       2.75064538      10.00000000
Pd       5.50129076       2.75064538      10.00000000
Pd       8.25193614       2.75064538      10.00000000
Pd      11.00258152       2.75064538      10.00000000
Pd       0.00000000       5.50129076      10.00000000
Pd       2.75064538       5.50129076      10.00000000
Pd       5.50129076       5.50129076      10.00000000
Pd       8.25193614       5.50129076      10.00000000
Pd      11.00258152       5.50129076      10.00000000
Pd       0.00000000       8.25193614      10.00000000
Pd       2.75064538       8.25193614      10.00000000
Pd       5.50129076       8.25193614      10.00000000
Pd       8.25193614       8.25193614      10.00000000
Pd      11.00258152       8.25193614      10.00000000
Pd       0.00000000      11.00258152      10.00000000
Pd       2.75064538      11.00258152      10.00000000
Pd       5.50129076      11.00258152      10.00000000
Pd       8.25193614      11.00258152      10.00000000
Pd      11.00258152      11.00258152      10.00000000
Pd       1.40840307       1.41002936      12.02884106
Pd       4.12940471       1.39984254      12.03595772
Pd       6.85063983       1.34871734      11.99917068
Pd       9.57512057       1.39592898      11.89594876
Pd      12.38684272       1.37174114      11.92044161
Pd       1.36734694       4.15456631      11.99885570
Pd       4.08756597       4.10401807      12.00727135
Pd       6.83010821       4.11252531      11.96618693
Pd       9.56728621       4.13975942      11.94281254
Pd      12.36578195       4.13265160      11.93417299
Pd       1.37110082       6.89256210      11.94010419
Pd       4.13935064       6.87026939      11.96482277
Pd       6.87097415       6.85831372      11.95140951
Pd       9.64205429       6.82915781      11.94515418
Pd      12.39111484       6.85622887      11.94896407
Pd       1.38823994       9.68781360      11.98480868
Pd       4.11777592       9.66324146      11.95099537
Pd       6.89476706       9.64088005      11.95142944
Pd       9.64982872       9.59779534      11.89439304
Pd      12.42487279       9.60955999      11.94161946
Pd       1.40543424      12.41806068      11.99408354
Pd       4.12959227      12.40603697      12.01403741
Pd       6.86816975      12.39901143      11.97280504
Pd       9.63028672      12.36702810      11.91406436
Pd      12.38824388      12.35747822      11.93894163
Pd      13.74824236      13.74121174      13.91905947
Pd       2.76702798       0.17077129      14.16500660
Pd       5.57584849      13.68553851      14.06435807
Pd       8.33826593       0.05063740      13.97622456
Pd      11.04991601      13.75239314      13.88768608
Pd       0.00403051       2.75340072      13.97190397
Pd       2.81608146       2.90221400      14.17136056
Pd       5.57338629       2.71997147      14.03482056
Pd       8.28710125       2.73332637      13.92431142
Pd      11.03416775       2.74893585      13.82400467
Pd      13.62059922       5.62912814      14.07097983
Pd       2.64990467       5.60816992      13.98623822
Pd       5.40961653       5.45492500      13.99404239
Pd       8.16418532       5.42097084      14.02609909
Pd      10.87090823       5.47179940      13.95875044
Pd       0.00725793       8.33410066      13.92183105
Pd       2.77231988       8.34279796      13.96234175
Pd       5.53662533       8.21154514      13.97456145
Pd       8.31440945       8.12647017      13.96623358
Pd      11.06739827       8.20287086      13.92153059
Pd      13.72309587      11.04726269      14.02942439
Pd       2.69348813      11.10906789      14.01491380
Pd       5.48475166      10.94289585      14.08631135
Pd       8.19857118      10.81813289      13.91462317
Pd      10.90381111      10.95426159      13.96342888
Pd      12.06355698       6.84090449      16.28343387
Pd       9.43017798      11.04181780      17.66434279
Pd       4.39415394      12.00671263      16.56048582
Pd       1.25522184       7.33029414      16.00655983
Pd      12.60358029       9.60474168      16.22039324
Pd       9.90254797       1.44546819      15.78343086
Pd       5.91762287       0.98604443      16.75717372
Pd       6.98796268       9.43626738      16.02999763
Pd       7.43977223      12.34781013      16.30315340
Pd      12.04386311      13.11867825      16.74126221
Pd       1.53750977       4.72170826      16.40289998
Pd       4.66462772       4.23200075      16.49508081
Pd      11.78026705       3.59478423      16.46587300
Pd       4.19204829       9.40837276      16.23386806
Pd       6.70253982       6.54497551      16.24324454
Pd       8.95372200       0.20575396      17.83761951
Pd       9.89881722       8.77595652      16.13317765
Pd       8.01454700       3.27291566      16.70918303
Pd       1.11034518       1.30791011      16.09159759
Pd       3.92399331       6.83203385      15.97625313
O        9.99803053       2.94568905      17.13068314
O       12.11527948      11.39409205      15.58006664
O        0.05156325      13.44949327      15.90167712
O       12.96300490       2.04100466      17.18222083
O       12.28745967       1.04514284      17.82125789
O        5.55314958       8.07189455      16.90601180
O        4.28139940       0.17641680      15.69914999
O        2.31597871       2.81189114      16.18102674
O       10.43060131      12.69104391      17.87825067
O        2.89307797      10.88666990      15.99713653
O        5.91948032      12.86636818      17.45994449
O        3.22645296       5.34594785      17.20161531
O        8.07620869       5.15044075      16.00731372
O        8.50054652       9.37280877      17.42739959
O        6.04396260       2.90182302      16.07035957
O       13.54963761       4.12803246      15.57242396
O       10.91529086       5.31298952      15.94453929
O       13.41045178       8.03810614      17.04877088
O        7.55537105       1.58388268      17.76687671
O        8.99032387      12.22161891      15.11116451
115
Lattice="13.75323 0.0 0.0 0.0 13.75323 0.0 0.0 0.0 23.89" Properties=species:S:1:pos:R:3 entry_id=18 rank=1 energy=-573.5432739257812 parent_id=16 pbc="T T F"
Pd       0.00000000       0.00000000      10.00000000
Pd       2.75064538       0.00000000      10.00000000
Pd       5.50129076       0.00000000      10.00000000
Pd       8.25193614       0.00000000      10.00000000
Pd      11.00258152       0.00000000      10.00000000
Pd       0.00000000       2.75064538      10.00000000
Pd       2.75064538       2.75064538      10.00000000
Pd       5.50129076       2.75064538      10.00000000
Pd       8.25193614       2.75064538      10.00000000
Pd      11.00258152       2.75064538      10.00000000
Pd       0.00000000       5.50129076      10.00000000
Pd       2.75064538       5.50129076      10.00000000
Pd       5.50129076       5.50129076      10.00000000
Pd       8.25193614       5.50129076      10.00000000
Pd      11.00258152       5.50129076      10.00000000
Pd       0.00000000       8.25193614      10.00000000
Pd       2.75064538       8.25193614      10.00000000
Pd       5.50129076       8.25193614      10.00000000
Pd       8.25193614       8.25193614      10.00000000
Pd      11.00258152       8.25193614      10.00000000
Pd       0.00000000      11.00258152      10.00000000
Pd       2.75064538      11.00258152      10.00000000
Pd       5.50129076      11.00258152      10.00000000
Pd       8.25193614      11.00258152      10.00000000
Pd      11.00258152      11.00258152      10.00000000
Pd       1.40990599       1.41019260      12.02823528
Pd       4.13074714       1.40167557      12.03462425
Pd       6.85263076       1.35170802      12.00081193
Pd       9.57512057       1.39592898      11.89594876
Pd      12.38684272       1.37174114      11.92044161
Pd       1.36628170       4.15698010      11.99749870
Pd       4.08325656       4.10185542      12.01284260
Pd       6.82532172       4.11481844      11.97084760
Pd       9.56728621       4.13975942      11.94281254
Pd      12.36578195       4.13265160      11.93417299
Pd       1.37110082       6.89256210      11.94010419
Pd       4.13935064       6.87026939      11.96482277
Pd       6.87097415       6.85831372      11.95140951
Pd       9.64205429       6.82915781      11.94515418
Pd      12.39111484       6.85622887      11.94896407
Pd       1.38869607       9.68838335      11.98435810
Pd       4.11777592       9.66324146      11.95099537
Pd       6.89476706       9.64088005      11.95142944
Pd       9.64982872       9.59779534      11.89439304
Pd      12.42487279       9.60955999      11.94161946
Pd       1.40346907      12.41643693      11.99518435
Pd       4.12685328      12.40358153      12.01088729
Pd       6.86816975      12.39901143      11.97280504
Pd       9.63028672      12.36702810      11.91406436
Pd      12.38776555      12.35834498      11.93693656
Pd      13.74385825      13.74173228      13.91744454
Pd       2.76436089       0.17371575      14.16213800
Pd       5.56765594      13.68615120      14.05373635
Pd       8.32873080       0.05386333      13.97748450
Pd      11.04320320       0.00386179      13.88508355
Pd       0.01056774       2.75700392      13.96769264
Pd       2.81987757       2.90771052      14.18166857
Pd       5.57547933       2.72210433      14.03977762
Pd       8.29118536       2.73896322      13.92466291
Pd      11.03974889       2.75100963      13.82631617
Pd      13.61054673       5.63612541      14.07896400
Pd       2.63973986       5.61117814      13.99152053
Pd       5.40109562       5.45911059      13.99718237
Pd       8.16066676       5.42591285      14.02661575
Pd      10.86679677       5.47396695      13.95641977
Pd       0.00965937       8.33850147      13.92165654
Pd       2.77489824       8.34438068      13.96383082
Pd       5.53781181       8.21305119      13.97615437
Pd       8.31760897       8.12889847      13.96878678
Pd      11.07160466       8.20897444      13.92223001
Pd      13.71689878      11.04953314      14.03312895
Pd       2.68840134      11.10998994      14.01802431
Pd       5.48270883      10.94373752      14.08375739
Pd       8.19629051      10.81820868      13.90951934
Pd      10.90069594      10.96314031      13.96203730
Pd      12.05498186       6.82622252      16.28798191
Pd       9.44372090      11.03482055      17.65905804
Pd       4.40293726      12.00653819      16.54851069
Pd       1.25169822       7.32196941      16.00365783
Pd      12.60734750       9.59309552      16.22810365
Pd       9.90110152       1.44454425      15.78119739
Pd       5.92663299       0.98149691      16.74673796
Pd       6.99785999       9.44445598      16.03045432
Pd       7.46393328      12.34074270      16.28356802
Pd      12.05344540      13.10979832      16.73716312
Pd       1.52781300       4.71867739      16.40838061
Pd       4.66236681       4.23903510      16.50062523
Pd      11.77674809       3.58693472      16.46689362
Pd       4.20177523       9.40826647      16.23493612
Pd       6.69404050       6.54631236      16.24535445
Pd       8.96093590       0.19747233      17.83451880
Pd       9.90600165       8.76100286      16.14076085
Pd       8.01364915       3.26942053      16.71051659
Pd       1.10837183       1.30677262      16.09066059
Pd       3.91765076       6.83492176      15.98416252
O        9.99653938       2.93746380      17.13535137
O       12.11679931      11.38062079      15.58388161
O        0.05953866      13.44025109      15.89838245
O       12.96683841       2.03480536      17.18254451
O       12.29832365       1.03492533      17.82071664
O        5.57343076       8.08882903      16.91194563
O        4.28384838       0.18084705      15.69593966
O        2.30972280       2.81262735      16.18994583
O       10.44015622      12.68652429      17.87145326
O        2.89808187      10.88423521      15.99844798
O        5.93971970      12.85828235      17.43618927
O        3.21700624       5.34708485      17.20439214
O        8.06185273       5.14801507      16.00652499
O        8.50898066       9.36856926      17.43078821
O        6.04210393       2.90616855      16.07737094
O       13.54315664       4.12664415      15.57145116
O       10.90607676       5.30209954      15.94212698
O       13.40570034       8.02020764      17.04953720
O        7.56060273       1.57524768      17.76416361
O        9.02134874      12.21715589      15.09215898
115
Lattice="13.75323 0.0 0.0 0.0 13.75323 0.0 0.0 0.0 23.89" Properties=species:S:1:pos:R:3 entry_id=17 rank=2 energy=-573.5419921875 parent_id=15 pbc="T T F"
Pd       0.00000000       0.00000000      10.00000000
Pd       2.75064538       0.00000000      10.00000000
Pd       5.50129076       0.00000000      10.00000000
Pd       8.25193614       0.00000000      10.00000000
Pd      11.00258152       0.00000000      10.00000000
Pd       0.00000000       2.75064538      10.00000000
Pd       2.75064538       2.75064538      10.00000000
Pd       5.50129076       2.75064538      10.00000000
Pd       8.25193614       2.75064538      10.00000000
Pd      11.00258152       2.75064538      10.00000000
Pd       0.00000000       5.50129076      10.00000000
Pd       2.75064538       5.50129076      10.00000000
Pd       5.50129076       5.50129076      10.00000000
Pd       8.25193614       5.50129076      10.00000000
Pd      11.00258152       5.50129076      10.00000000
Pd       0.00000000       8.25193614      10.00000000
Pd       2.75064538       8.25193614      10.00000000
Pd       5.50129076       8.25193614      10.00000000
Pd       8.25193614       8.25193614      10.00000000
Pd      11.00258152       8.25193614      10.00000000
Pd       0.00000000      11.00258152      10.00000000
Pd       2.75064538      11.00258152      10.00000000
Pd       5.50129076      11.00258152      10.00000000
Pd       8.25193614      11.00258152      10.00000000
Pd      11.00258152      11.00258152      10.00000000
Pd       1.41396661       1.40550473      12.02810722
Pd       4.13225406       1.40219153      12.03998092
Pd       6.85365656       1.34974062      11.99754393
Pd       9.57512057       1.39592898      11.89594876
Pd      12.38684272       1.37174114      11.92044161
Pd       1.37210123       4.15211482      12.00122176
Pd       4.08579781       4.10309952      12.01461944
Pd       6.82986992       4.11401125      11.96435900
Pd       9.56728621       4.13975942      11.94281254
Pd      12.36578195       4.13265160      11.93417299
Pd       1.37110082       6.89256210      11.94010419
Pd       4.13935064       6.87026939      11.96482277
Pd       6.87097415       6.85831372      11.95140951
Pd       9.64205429       6.82915781      11.94515418
Pd      12.39111484       6.85622887      11.94896407
Pd       1.38992049       9.68482219      11.98493365
Pd       4.11777592       9.66324146      11.95099537
Pd       6.89476706       9.64088005      11.95142944
Pd       9.64982872       9.59779534      11.89439304
Pd      12.42487279       9.60955999      11.94161946
Pd       1.40450973      12.41174240      11.99438190
Pd       4.12863467      12.40590809      12.01595724
Pd       6.86816975      12.39901143      11.97280504
Pd       9.63028672      12.36702810      11.91406436
Pd      12.38828083      12.35613458      11.93662312
Pd      13.74570708      13.73199201      13.91543307
Pd       2.76530039       0.17199304      14.16527679
Pd       5.57672140      13.68870185      14.06250543
Pd       8.33644296       0.05335250      13.97762440
Pd      11.04828210       0.00049754      13.88254979
Pd       0.01338552       2.74456696      13.96458990
Pd       2.82826725       2.90519416      14.19011273
Pd       5.58189837       2.72353060      14.03020113
Pd       8.29463213       2.73579557      13.92469350
Pd      11.03900657       2.75059859      13.82620062
Pd      13.62346345       5.61825961      14.05915350
Pd       2.65435419       5.61299650      13.99574267
Pd       5.41150827       5.46151097      13.99459374
Pd       8.16467190       5.42236413      14.02133996
Pd      10.87132326       5.47507748      13.95832284
Pd       0.00759834       8.33009015      13.91794033
Pd       2.78133385       8.34573147      13.95966315
Pd       5.54021210       8.21669490      13.97755160
Pd       8.31884075       8.12815803      13.97227554
Pd      11.06956499       8.20761882      13.92203824
Pd      13.70996381      11.04057694      14.03197804
Pd       2.68210606      11.11320930      14.02106851
Pd       5.47627346      10.94596018      14.08806586
Pd       8.19275183      10.81787391      13.91430660
Pd      10.89568728      10.95933518      13.96113203
Pd      12.08871027       6.83275461      16.27282711
Pd       9.42034669      11.04419297      17.67106745
Pd       4.39112611      12.02721924      16.56092571
Pd       1.26543427       7.31123188      15.98742381
Pd      12.60836027       9.59931105      16.22188027
Pd       9.91005747       1.43885514      15.78503778
Pd       5.92852701       1.00456466      16.75487188
Pd       6.98775503       9.44406849      16.02944148
Pd       7.43051666      12.35757252      16.31199590
Pd      12.03566382      13.10689203      16.74432860
Pd       1.54594859       4.70558290      16.39921837
Pd       4.67914671       4.23784967      16.47827413
Pd      11.79678227       3.58241392      16.46214874
Pd       4.20071978       9.42191756      16.24591872
Pd       6.71889560       6.55766914      16.23874841
Pd       8.95560480       0.21065368      17.84533900
Pd       9.90947947       8.77964257      16.13949459
Pd       8.03709002       3.28275149      16.70722603
Pd       1.10006803       1.28875602      16.09162007
Pd       3.93687751       6.84272314      15.98828696
O       10.01652048       2.93915100      17.13209359
O       12.09024613      11.38229681      15.59138919
O        0.04041878      13.42738950      15.89674872
O       12.97472943       2.02390289      17.18095546
O       12.29720222       1.03177834      17.82275888
O        5.56007650       8.07641828      16.91458103
O        4.28748237       0.19515728      15.69666533
O        2.30769557       2.78984634      16.19282604
O       10.42545126      12.68982705      17.88783040
O        2.89730028      10.89515543      16.00239405
O        5.91281662      12.88862044      17.46664910
O        3.23404687       5.33908351      17.19003088
O        8.09455740       5.16203010      16.00362172
O        8.50002194       9.37364928      17.42380974
O        6.06904677       2.91593835      16.06091900
O       13.56069818       4.11776397      15.56435235
O       10.93904832       5.30488686      15.94189822
O       13.43165631       8.03551901      17.03612628
O        7.56630227       1.59783843      17.76919812
O        8.97259320      12.22161998      15.11432506
115
Lattice="13.75323 0.0 0.0 0.0 13.75323 0.0 0.0 0.0 23.89" Properties=species:S:1:pos:R:3 entry_id=15 rank=3 energy=-573.5396728515625 parent_id=14 pbc="T T F"
Pd       0.00000000       0.00000000      10.00000000
Pd       2.75064538       0.00000000      10.00000000
Pd       5.50129076       0.00000000      10.00000000
Pd       8.25193614       0.00000000      10.00000000
Pd      11.00258152       0.00000000      10.00000000
Pd       0.00000000       2.75064538      10.00000000
Pd       2.75064538       2.75064538      10.00000000
Pd       5.50129076       2.75064538      10.00000000
Pd       8.25193614       2.75064538      10.00000000
Pd      11.00258152       2.75064538      10.00000000
Pd       0.00000000       5.50129076      10.00000000
Pd       2.75064538       5.50129076      10.00000000
Pd       5.50129076       5.50129076      10.00000000
Pd       8.25193614       5.50129076      10.00000000
Pd      11.00258152       5.50129076      10.00000000
Pd       0.00000000       8.25193614      10.00000000
Pd       2.75064538       8.25193614      10.00000000
Pd       5.50129076       8.25193614      10.00000000
Pd       8.25193614       8.25193614      10.00000000
Pd      11.00258152       8.25193614      10.00000000
Pd       0.00000000      11.00258152      10.00000000
Pd       2.75064538      11.00258152      10.00000000
Pd       5.50129076      11.00258152      10.00000000
Pd       8.25193614      11.00258152      10.00000000
Pd      11.00258152      11.00258152      10.00000000
Pd       1.40595869       1.41275121      12.02941609
Pd       4.12510957       1.40020276      12.03646361
Pd       6.84717597       1.34981238      11.99816035
Pd       9.57512057       1.39592898      11.89594876
Pd      12.38684272       1.37174114      11.92044161
Pd       1.36489542       4.15569362      12.00067331
Pd       4.08333826       4.10299999      12.00823859
Pd       6.82792094       4.11308379      11.96259777
Pd       9.56728621       4.13975942      11.94281254
Pd      12.36578195       4.13265160      11.93417299
Pd       1.37110082       6.89256210      11.94010419
Pd       4.13935064       6.87026939      11.96482277
Pd       6.87097415       6.85831372      11.95140951
Pd       9.64205429       6.82915781      11.94515418
Pd      12.39111484       6.85622887      11.94896407
Pd       1.38677478       9.69206839      11.98580259
Pd       4.11777592       9.66324146      11.95099537
Pd       6.89476706       9.64088005      11.95142944
Pd       9.64982872       9.59779534      11.89439304
Pd      12.42487279       9.60955999      11.94161946
Pd       1.40106709      12.42163475      11.99912769
Pd       4.12539039      12.40471537      12.01669687
Pd       6.86816975      12.39901143      11.97280504
Pd       9.63028672      12.36702810      11.91406436
Pd      12.38666742      12.35797618      11.93786508
Pd      13.73168923      13.74723293      13.92035475
Pd       2.75000806       0.17479339      14.16478883
Pd       5.56178320      13.69695791      14.06658781
Pd       8.32317742       0.05722278      13.97571415
Pd      11.03439176       0.00428726      13.88434536
Pd      13.75171798       2.75561970      13.97153729
Pd       2.80941395       2.90398990      14.17837824
Pd       5.56813342       2.72994262      14.03157197
Pd       8.28342812       2.73816639      13.92226329
Pd      11.02935061       2.75307985      13.82700064
Pd      13.61549497       5.63097935      14.06841231
Pd       2.64596952       5.60899669      13.99028263
Pd       5.40653687       5.46510031      13.99275749
Pd       8.16163412       5.42148785      14.02217807
Pd      10.86879110       5.47898582      13.95727161
Pd       0.00172351       8.34065957      13.92259139
Pd       2.76700806       8.34562894      13.95958732
Pd       5.53124323       8.22148765      13.97299816
Pd       8.31275236       8.12440337      13.96966227
Pd      11.06506668       8.20963101      13.92255411
Pd      13.71351267      11.05512768      14.03554905
Pd       2.68408185      11.11066442      14.02143291
Pd       5.47609946      10.95562839      14.09124079
Pd       8.19606856      10.81092640      13.91750397
Pd      10.89819051      10.95950011      13.95142962
Pd      12.05812028       6.84788471      16.28394652
Pd       9.39730764      11.05767724      17.66354957
Pd       4.34560835      12.02693470      16.56215112
Pd       1.24092927       7.32651166      16.00328265
Pd      12.59582266       9.61491329      16.22111005
Pd       9.88894330       1.44736755      15.78565304
Pd       5.88121005       1.00763695      16.76414284
Pd       6.97756066       9.44081037      16.02388578
Pd       7.37337375      12.36283222      16.32308283
Pd      12.01450812      13.12342877      16.74240328
Pd       1.51547340       4.72258771      16.40208244
Pd       4.63990687       4.24242405      16.49035865
Pd      11.76195772       3.60118190      16.46435795
Pd       4.18299042       9.42220005      16.23936584
Pd       6.68605913       6.55491531      16.24341997
Pd       8.91765248       0.21602066      17.83822331
Pd       9.89740887       8.79638996      16.13352141
Pd       7.99596713       3.27917623      16.70662728
Pd       1.08401713       1.30868145      16.09828951
Pd       3.91199138       6.84386590      15.97846917
O        9.97930730       2.95132858      17.12951623
O       12.09271720      11.39764752      15.57864050
O        0.02315815      13.45075133      15.90385843
O       12.94175140       2.04531806      17.18300575
O       12.25977270       1.05244384      17.82005550
O        5.55107546       8.09111277      16.90823707
O        4.25397433       0.19601668      15.69631914
O        2.29202514       2.81110382      16.18721054
O       10.39740353      12.70502521      17.87827320
O        2.86247684      10.88143891      16.00491918
O        5.85772819      12.89299055      17.47993187
O        3.20130394       5.35744487      17.19654787
O        8.05406698       5.15658825      16.00223555
O        8.48660620       9.38013059      17.42175401
O        6.02560846       2.91730435      16.06827263
O       13.53138044       4.12966209      15.56967753
O       10.90502643       5.32443283      15.94353299
O       13.40347518       8.04933149      17.04533419
O        7.52334707       1.59686114      17.77135652
O        8.90951673      12.23085682      15.12854672
115
Lattice="13.75323 0.0 0.0 0.0 13.75323 0.0 0.0 0.0 23.89" Properties=species:S:1:pos:R:3 entry_id=20 rank=4 energy=-573.537353515625 parent_id=16 pbc="T T F"
Pd       0.00000000       0.00000000      10.00000000
Pd       2.75064538       0.00000000      10.00000000
Pd       5.50129076       0.00000000      10.00000000
Pd       8.25193614       0.00000000      10.00000000
Pd      11.00258152       0.00000000      10.00000000
Pd       0.00000000       2.75064538      10.00000000
Pd       2.75064538       2.75064538      10.00000000
Pd       5.50129076       2.75064538      10.00000000
Pd       8.25193614       2.75064538      10.00000000
Pd      11.00258152       2.75064538      10.00000000
Pd       0.00000000       5.50129076      10.00000000
Pd       2.75064538       5.50129076      10.00000000
Pd       5.50129076       5.50129076      10.00000000
Pd       8.25193614       5.50129076      10.00000000
Pd      11.00258152       5.50129076      10.00000000
Pd       0.00000000       8.25193614      10.00000000
Pd       2.75064538       8.25193614      10.00000000
Pd       5.50129076       8.25193614      10.00000000
Pd       8.25193614       8.25193614      10.00000000
Pd      11.00258152       8.25193614      10.00000000
Pd       0.00000000      11.00258152      10.00000000
Pd       2.75064538      11.00258152      10.00000000
Pd       5.50129076      11.00258152      10.00000000
Pd       8.25193614      11.00258152      10.00000000
Pd      11.00258152      11.00258152      10.00000000
Pd       1.41040377       1.40295751      12.02683673
Pd       4.12872288       1.39772095      12.03567931
Pd       6.84881814       1.34647210      11.99804167
Pd       9.57512057       1.39592898      11.89594876
Pd      12.38684272       1.37174114      11.92044161
Pd       1.36748251       4.14948635      11.99684991
Pd       4.08411440       4.10001047      12.01079158
Pd       6.82695497       4.11199365      11.96684284
Pd       9.56728621       4.13975942      11.94281254
Pd      12.36578195       4.13265160      11.93417299
Pd       1.37110082       6.89256210      11.94010419
Pd       4.13935064       6.87026939      11.96482277
Pd       6.87097415       6.85831372      11.95140951
Pd       9.64205429       6.82915781      11.94515418
Pd      12.39111484       6.85622887      11.94896407
Pd       1.38885056       9.68483898      11.98538270
Pd       4.11777592       9.66324146      11.95099537
Pd       6.89476706       9.64088005      11.95142944
Pd       9.64982872       9.59779534      11.89439304
Pd      12.42487279       9.60955999      11.94161946
Pd       1.40324246      12.41111562      11.99503899
Pd       4.12590834      12.40110552      12.01712493
Pd       6.86816975      12.39901143      11.97280504
Pd       9.63028672      12.36702810      11.91406436
Pd      12.38661052      12.35453426      11.93296076
Pd      13.73412613      13.72481480      13.91124177
Pd       2.75470561       0.16384290      14.15980717
Pd       5.56228002      13.67657701      14.06667516
Pd       8.32553718       0.03676772      13.97359337
Pd      11.04140481      13.75257252      13.87766436
Pd       0.00442457       2.73641252      13.96103341
Pd       2.81767456       2.89434246      14.18301401
Pd       5.57267523       2.71093769      14.03340209
Pd       8.28428695       2.72299186      13.92170708
Pd      11.02982313       2.74884596      13.82579047
Pd      13.61240766       5.61239870      14.06873066
Pd       2.64437833       5.59917432      13.98625326
Pd       5.40534285       5.44937877      13.99510732
Pd       8.15813284       5.40410911      14.03417223
Pd      10.86310871       5.47547941      13.96151512
Pd       0.00528338       8.32262566      13.91274582
Pd       2.77524477       8.33611397      13.96086641
Pd       5.53169288       8.20554590      13.97470874
Pd       8.31150124       8.10595139      13.97585671
Pd      11.06452053       8.21225766      13.93113148
Pd      13.70772669      11.03421553      14.03090640
Pd       2.68140729      11.10400764      14.02321793
Pd       5.47042159      10.93434633      14.09791284
Pd       8.18458451      10.78839515      13.91977157
Pd      10.88790413      10.96552842      13.95230303
Pd      12.04978061       6.79457317      16.28039103
Pd       9.40410061      10.99924754      17.64755006
Pd       4.34919528      11.98363541      16.56144796
Pd       1.24784435       7.29207507      15.98295517
Pd      12.58610200       9.56689350      16.20781873