115
Lattice="13.75323 0.0 0.0 0.0 13.75323 0.0 0.0 0.0 23.89" Properties=species:S:1:pos:R:3 entry_id=16 rank=0 energy=-573.54443359375 parent_id=15 pbc="T T F"
Pd       0.00000000       0.00000000      10.00000000
Pd       2.75064538       0.00000000      10.00000000
Pd       5.50129076       0.00000000      10.00000000
Pd       8.25193614       0.00000000      10.00000000
Pd      11.00258152       0.00000000      10.00000000
Pd       0.00000000       2.75064538      10.00000000
Pd       2.75064538       2.75064538      10.00000000
Pd       5.50129076       2.75064538      10.00000000
Pd       8.25193614       2.75064538      10.00000000
Pd      11.00258152       2.75064538      10.00000000
Pd       0.00000000       5.50129076      10.00000000
Pd       2.75064538       5.50129076      10.00000000
Pd       5.50129076       5.50129076      10.00000000
Pd       8.25193614       5.50129076      10.00000000
Pd      11.00258152       5.50129076      10.00000000
Pd       0.00000000       8.25193614      10.00000000
Pd       2.75064538       8.25193614      10.00000000
Pd       5.50129076       8.25193614      10.00000000
Pd       8.25193614       8.25193614      10.00000000
Pd      11.00258152       8.25193614      10.00000000
Pd       0.00000000      11.00258152      10.00000000
Pd       2.75064538      11.00258152      10.00000000
Pd       5.50129076      11.00258152      10.00000000
Pd       8.25193614      11.00258152      10.00000000
Pd      11.00258152      11.00258152      10.00000000
Pd       1.40840307       1.41002936      12.02884106
Pd       4.12940471       1.39984254      12.03595772
Pd       6.85063983       1.34871734      11.99917068
Pd       9.57512057       1.39592898      11.89594876
Pd      12.38684272       1.37174114      11.92044161
Pd       1.36734694       4.15456631      11.99885570
Pd       4.08756597       4.10401807      12.00727135
Pd       6.83010821       4.11252531      11.96618693
Pd       9.56728621       4.13975942      11.94281254
Pd      12.36578195       4.13265160      11.93417299
Pd       1.37110082       6.89256210      11.94010419
Pd       4.13935064       6.87026939      11.96482277
Pd       6.87097415       6.85831372      11.95140951
Pd       9.64205429       6.82915781      11.94515418
Pd      12.39111484       6.85622887      11.94896407
Pd       1.38823994       9.68781360      11.98480868
Pd       4.11777592       9.66324146      11.95099537
Pd       6.89476706       9.64088005      11.95142944
Pd       9.64982872       9.59779534      11.89439304
Pd      12.42487279       9.60955999      11.94161946
Pd       1.40543424      12.41806068      11.99408354
Pd       4.12959227      12.40603697      12.01403741
Pd       6.86816975      12.39901143      11.97280504
Pd       9.63028672      12.36702810      11.91406436
Pd      12.38824388      12.35747822      11.93894163
Pd      13.74824236      13.74121174      13.91905947
Pd       2.76702798       0.17077129      14.16500660
Pd       5.57584849      13.68553851      14.06435807
Pd       8.33826593       0.05063740      13.97622456
Pd      11.04991601      13.75239314      13.88768608
Pd       0.00403051       2.75340072      13.97190397
Pd       2.81608146       2.90221400      14.17136056
Pd       5.57338629       2.71997147      14.03482056
Pd       8.28710125       2.73332637      13.92431142
Pd      11.03416775       2.74893585      13.82400467
Pd      13.62059922       5.62912814      14.07097983
Pd       2.64990467       5.60816992      13.98623822
Pd       5.40961653       5.45492500      13.99404239
Pd       8.16418532       5.42097084      14.02609909
Pd      10.87090823       5.47179940      13.95875044
Pd       0.00725793       8.33410066      13.92183105
Pd       2.77231988       8.34279796      13.96234175
Pd       5.53662533       8.21154514      13.97456145
Pd       8.31440945       8.12647017      13.96623358
Pd      11.06739827       8.20287086      13.92153059
Pd      13.72309587      11.04726269      14.02942439
Pd       2.69348813      11.10906789      14.01491380
Pd       5.48475166      10.94289585      14.08631135
Pd       8.19857118      10.81813289      13.91462317
Pd      10.90381111      10.95426159      13.96342888
Pd      12.06355698       6.84090449      16.28343387
Pd       9.43017798      11.04181780      17.66434279
Pd       4.39415394      12.00671263      16.56048582
Pd       1.25522184       7.33029414      16.00655983
Pd      12.60358029       9.60474168      16.22039324
Pd       9.90254797       1.44546819      15.78343086
Pd       5.91762287       0.98604443      16.75717372
Pd       6.98796268       9.43626738      16.02999763
Pd       7.43977223      12.34781013      16.30315340
Pd      12.04386311      13.11867825      16.74126221
Pd       1.53750977       4.72170826      16.40289998
Pd       4.66462772       4.23200075      16.49508081
Pd      11.78026705       3.59478423      16.46587300
Pd       4.19204829       9.40837276      16.23386806
Pd       6.70253982       6.54497551      16.24324454
Pd       8.95372200       0.20575396      17.83761951
Pd       9.89881722       8.77595652      16.13317765
Pd       8.01454700       3.27291566      16.70918303
Pd       1.11034518       1.30791011      16.09159759
Pd       3.92399331       6.83203385      15.97625313
O        9.99803053       2.94568905      17.13068314
O       12.11527948      11.39409205      15.58006664
O        0.05156325      13.44949327      15.90167712
O       12.96300490       2.04100466      17.18222083
O       12.28745967       1.04514284      17.82125789
O        5.55314958       8.07189455      16.90601180
O        4.28139940       0.17641680      15.69914999
O        2.31597871       2.81189114      16.18102674
O       10.43060131      12.69104391      17.87825067
O        2.89307797      10.88666990      15.99713653
O        5.91948032      12.86636818      17.45994449
O        3.22645296       5.34594785      17.20161531
O        8.07620869       5.15044075      16.00731372
O        8.50054652       9.37280877      17.42739959
O        6.04396260       2.90182302      16.07035957
O       13.54963761       4.12803246      15.57242396
O       10.91529086       5.31298952      15.94453929
O       13.41045178       8.03810614      17.04877088
O        7.55537105       1.58388268      17.76687671
O        8.99032387      12.22161891      15.11116451
