75
algorithm=ssw size=75 seed=0 index=0 energy=-277.9178483656908 entry_id=0 visits=2
Ar 0.783093933161277 0.829791188063039 1.320884951694112
Ar -0.4111183863480756 -0.550542409995375 0.8165222316719599
Ar 0.9291084710561944 1.600009626316826 2.11983614510613
Ar -1.219640436296194 1.336413733072923 0.04833873232295419
Ar 2.242091971915655 2.443484943537238 -2.078697600929035
Ar -1.462715029708144 -2.883995180197298 1.765934757834442
Ar 2.252030319396798 0.3498889498113759 2.87882900956565
Ar 0.9660601592677458 -0.09644505435561011 1.833817285691456
Ar -2.720094219568368 0.8314655350066659 -2.242962310983861
Ar 1.933850789979035 0.3507402596347987 -0.9888000236130123
Ar -2.138291414111838 2.002966004813286 0.1352885098657763
Ar -0.3741224916863949 -1.537294339565102 1.327873380375392
Ar 0.4901402126681256 0.6508675853857985 2.430974955982082
Ar 1.691792155148722 -0.5582430178638662 0.2771510030336731
Ar 1.04281540156932 -2.198501484255215 0.5540127866927922
Ar 1.788521257754429 -0.7181891446199544 -0.8257657403144734
Ar 0.007053756080870573 -2.383539340612175 0.7914346563360897
Ar 1.394523924267854 2.506526256760427 -2.880451629445588
Ar -1.174041994102004 -1.775813579436678 2.022251578549188
Ar -1.992347758586872 0.06038347829008298 -1.809111764154817
Ar -1.051201751933365 -2.238616318690261 1.017332177776322
Ar -1.673429097346702 -1.891892236297809 0.2254363834077609
Ar 1.320031057514837 -0.9390811651233817 1.239001092129995
Ar -1.819547323692029 3.063912077866106 0.2935226051265286
Ar 1.675650376003238 0.1862218248115809 1.062029074542046
Ar -2.47691270697158 -0.9399377109632405 -1.865128456781637
Ar -0.7762836077411037 -2.606722955327465 0.03735972832724566
Ar -0.3497849278649486 -2.513487674697601 1.83864503836085
Ar 0.4251725622758148 -1.279579643595619 0.6115005678724348
Ar -3.392579061073549 0.6271213786267582 3.615187613666112
Ar -1.802667975414867 0.5274552634713234 -2.800923725124216
Ar 1.14377598449324 -1.379763123766397 -0.1882830807544358
Ar 0.6561139254975772 -1.867813894705257 1.558581385221159
Ar -2.519700784461996 0.7788734425194012 -1.15066331613502
Ar 1.234382957525897 1.900694338806771 -1.900644023358136
Ar -0.1279760203970272 0.7556356614901925 0.7140763275701327
Ar -1.209750430574418 2.38667809733447 -0.3596771555612631
Ar 2.435652339890104 0.5006743244970219 -2.06774231574348
Ar 1.063189988113546 -1.088094100588741 2.320262692398843
Ar -0.1314334151029104 1.282723816987526 1.728788885710026
Ar 1.234417667556371 -0.09528372108884174 2.873331383786757
Ar -0.1448189317087512 0.02033115078954483 -0.0811402294710019
Ar -2.047319025456366 -1.98919967595246 1.313659763237901
Ar -1.83346967174558 1.605549550569954 -0.8567447077319489
Ar -1.343755818925687 -1.156095679740314 1.067372667046174
Ar 0.6476815133875817 -0.1704659621741446 0.7512063868395945
Ar 0.3176440806261812 -0.814006770525562 1.584013590439389
Ar -0.7370715852086407 -0.6953191708642661 1.914031700762961
Ar 2.209565267269455 1.42066191417572 -1.500673816574823
Ar 1.635195612137412 0.7235636643343799 2.047194863954168
Ar -2.609747758648198 1.775866855289802 -1.64893538519627
Ar -0.06454703287616434 -1.505639749939016 2.366765880578417
Ar 1.335374902352292 0.7695978742183036 -1.925039422579496
Ar -2.922031273573332 1.658979968103357 -0.5850209878876244
Ar 1.319510350014843 1.014506138809635 3.053298580938077
Ar 1.940432124307403 -1.578789375318315 0.6246475493935602
Ar 0.2416494793723818 -2.064858790833552 -0.2200415049867949
Ar -3.492602812945768 -0.8366712136523041 -2.334660718882358
Ar 0.04139738367009758 -1.008162134588718 -0.3864105195031491
Ar 1.96404724262396 1.488111514521636 -2.625438812040857
Ar -2.251156016401755 0.9133748477669718 -0.0801732814200956
Ar -1.218939407911053 2.216510344739035 0.7454983710049343
Ar -0.08236663314563138 0.1628398866491083 1.628826735603775
Ar -2.650164345079487 -0.1921221810728706 -2.679569127688262
Ar -2.237953301090913 2.47176767216672 1.145750396070127
Ar 0.7903257558282168 -1.0819076655974 -1.184164068649029
Ar -3.099784682820815 -0.03090434001910357 -1.658192391780675
Ar 0.8667783201882948 -0.2974712609167446 -0.3597019251225315
Ar -1.722426611611157 -2.971607496183039 0.6321978350848356
Ar 0.183577413069484 -0.4145849248695079 2.572443810694359
Ar 2.406722457812801 -0.6688762879553795 1.101439436469138
Ar -0.6695843317762102 -3.252314282102101 1.002848891355012
Ar -0.6182181647085583 -1.535073041147199 0.2909669185164679
Ar 1.973306924820935 -0.3929645099893653 2.070213357861332
Ar -1.716247103469975 1.134344313401303 -1.857034893227222
75
algorithm=ssw size=75 seed=0 index=1 energy=-363.053218918748 entry_id=1 visits=3
Ar 0.2689360270066328 1.068852243942975 0.9846869235482312
Ar -1.083805859205273 0.1135211693436367 0.7476081781842787
Ar 1.034375218802392 1.830521807175099 0.6817737587907053
Ar -0.3182567900582429 1.249093539764231 -0.5133009123025066
Ar 0.7855944157329758 2.062102652789015 -0.4356850961075759
Ar -1.65459881597455 -2.394124650929282 1.529162891833696
Ar 1.809463633340677 0.5899497175230821 1.854304455187595
Ar 0.8041733632731787 0.3575227573360334 1.570635059110104
Ar -2.437792884408381 0.3408597226332571 -1.463605842375807
Ar 1.326350734352238 0.4063121101912761 -0.3233511180092279
Ar -1.126976314284176 0.5993577173868831 -0.2284463145199078
Ar -0.568041670085352 -0.9141143194141738 1.138077142173807
Ar 0.02358100364311914 0.9668172731381305 2.042110137334642
Ar 0.8851111384501278 -0.543939063518742 -0.3866312625863533
Ar 0.5480222991621182 -1.563097359630272 -0.2582951092137956
Ar 1.962197335849603 -0.3346972615072668 -0.8243996386005121
Ar -0.3781300940400566 -1.726737292166534 0.3731557448495862
Ar 1.681713788381583 1.906655709208878 -1.139058892682191
Ar -1.315883445504923 -1.316846498682624 1.88228615000652
Ar -0.8586548529440514 -0.6019310327730991 -1.549871194548454
Ar -1.345003643654862 -1.630681442781964 0.8408248077495951
Ar -2.107519619086685 -1.196469626093792 0.1901837462386893
Ar 1.057147332147784 -1.055046483671755 0.5753619456285134
Ar -0.7518221304403853 1.205523507718415 0.5802805428818629
Ar 1.461389012474013 0.7987696722843721 0.7657104574086695
Ar -1.497936331269096 -1.033449744586004 -0.7648892554754654
Ar -1.29395116765494 -1.920995325827304 -0.2031711879023745
Ar -0.5864750512668448 -2.039391098240854 1.478555650372138
Ar 0.02953028636197002 -0.7126294997509557 0.2673918501375382
Ar -0.9590238429295472 0.8517056172849683 1.574400536446864
Ar -1.438168906869388 0.2694172951292381 -1.996484698543879
Ar 1.210481364365288 -1.063367585629215 -1.280789485401781
Ar 0.3677475656862738 -1.67925341005938 1.140493455057739
Ar -1.561761557619548 0.0002944421478684623 -0.9552077833912763
Ar 0.9023649288953124 1.13998323978729 -1.045872287436796
Ar -0.1808446159940737 0.3762832571734227 0.2296897381613892
Ar -1.386832025177834 1.638026060212863 -0.2219040279794192
Ar 2.34631377105514 0.5721556551789453 -0.02053968851945162
Ar 1.294747902694269 -1.336449750282465 1.647108779315496
Ar -0.3690001300229492 1.819470269886396 1.420273462318672
Ar 1.130972901330498 -0.4145047878917864 2.277652037114282
Ar -0.5874377750874487 -0.2730959382264844 -0.5372803389241876
Ar -2.339014293673161 -1.54920446303159 1.265382884126481
Ar -1.481908425323966 1.075877118209492 -1.191206097908086
Ar -1.719047589663268 -0.6647112805619473 1.085744479668584
Ar 0.7693807577616562 0.02246647428347423 0.5450336643719593
Ar 0.4856237768095639 -0.651404230198932 1.390248209539891
Ar -1.00511636113115 -0.2376888973951733 1.863079016886654
Ar 0.6133791533956249 1.085145316331395 0.008060616938843529
Ar 1.028554442528715 1.400355471636727 1.710856159148019
Ar -2.211577232283622 0.75712169325474 -0.4473305908956116
Ar -0.1708231945418036 -1.1896067542583 2.093385750863739
Ar 1.968858222033183 0.8009786420217787 -1.081601631145324
Ar -1.808699986225381 0.9194522322996679 0.5701775310120712
Ar 0.9334214019583856 0.6455535278195678 2.5963341719074
Ar 1.669137869729565 -1.308190676710871 -0.3051614098300316
Ar -0.4501675742296045 -1.326371503076882 -0.6447195702166603
Ar -2.300860366115659 -1.775888574722583 -0.7033058314038894
Ar 0.1935031834511335 -0.6297574987304257 -1.224442258386401
Ar 1.649324959870823 1.422849967939073 -0.1561975459710647
Ar -1.891447114305274 -0.1333855252776862 0.09625440288445977
Ar -0.01020406768278807 1.941436589760225 0.3307171595431003
Ar -0.184873904649693 0.1423367391061387 1.265024512038086
Ar -1.978540024138271 -0.6798609856441521 -1.701824802236962
Ar -1.91306989222656 0.3192124314314242 1.484252245620383
Ar 1.103983768108245 0.06149967346715008 -1.360944263873749
Ar -2.487628965389161 -0.5676975525739556 -0.712331603569697
Ar 0.2990979975917369 0.3190267698005234 -0.6990114230526342
Ar -2.10971844479471 -2.290545491594972 0.4425578362424384
Ar 0.06539293531407232 -0.1129123460471774 2.28451813224204
Ar 1.815854780156362 -0.3524142003934157 0.246477970211278
Ar -1.017086910871656 -2.633046870524461 0.6163000027455822
Ar -1.063689955006803 -0.8453005511800417 0.194605766443101
Ar 1.563147906977268 -0.3283265701543926 1.273452850866973
Ar -0.5857942057996957 0.4735479834954061 -1.303791063822028
75
algorithm=ssw size=75 seed=0 index=2 energy=-365.7824325173447 entry_id=2 visits=2
Ar 0.2342558688829272 1.032305562726409 0.5555185582195351
Ar -0.9147493722682305 0.2576575200782015 1.357619080447841
Ar 1.12580617028855 2.048544599674245 -0.6095310400059019
Ar -0.5425291891060546 0.8496720783004719 -0.2088255289697253
Ar -0.5373453065808012 1.660419511598825 -0.9526955850962896
Ar 0.0997538712646763 -1.882782497472459 2.360323031984942
Ar 1.791719146468083 0.36980830726005 -0.04761836825637466
Ar 1.144021412814377 0.4072933905975205 0.8671267161938899
Ar -2.261994382639469 0.7815492904930963 0.0938197030767824
Ar 0.415986851655707 0.3919170071937779 -1.116248542395754
Ar -1.321953865439364 0.2892132219027063 0.3755769366932938
Ar -0.2402743780954041 -0.5271077347340993 1.574607264045295
Ar -0.09766463023385254 1.814185421469913 1.255454503917922
Ar 0.4575666266538346 -0.6684167607863637 -0.7068506118434048
Ar 0.1090129697489371 -1.794039121992711 -0.6167517939943601
Ar 0.8406826181947213 -0.388228199876796 -1.832508398671776
Ar 0.6433709782325034 -1.399274615974347 0.2169349220352232
Ar -0.456137152884708 1.480411853972715 -2.058264985837481
Ar -0.2985889064554816 -0.8514530870606846 2.608125104471145
Ar -1.737890331004434 -1.3067390197549 -0.877964860247981
Ar -0.1104943753328517 -1.387461004459681 0.9829316447844683
Ar -1.776247085871244 -1.266367124236123 1.439299196643364
Ar 1.312316272738753 -0.6010528136070293 0.02610788158155392
Ar -0.8059564826496582 1.145616932183867 0.7880220321040962
Ar 1.321240154402697 0.9737440791917803 -0.8346011921155063
Ar -1.814720704280104 -1.313653495767507 0.3270395424633696
Ar -0.1220940244396464 -2.246109845178442 0.3417975079680285
Ar 0.6235954759130277 -1.168496287022207 1.739025518324656
Ar -0.2897906112110427 -0.9270729107686732 0.04629708093048094
Ar 0.2153467309692748 1.209346681642912 2.161107487411524
Ar -2.220950430279415 -0.2937221044005213 -0.847578708233073
Ar 0.3367738614188831 -1.325685905720404 -1.57074811397658
Ar 0.9102473384060253 -2.393402085923201 -0.07434413850045959
Ar -2.217501512827673 -0.2915572183966356 0.2271091893081357
Ar -0.6193359009570768 0.6513626934056723 -1.355806255857902
Ar -0.2840841347840248 0.05837557496470495 0.499376735021351
Ar -1.416332542497425 1.454599517881709 -0.07584188413873842
Ar 1.231046743221062 0.6281333634678347 -1.85265572969138
Ar 1.422083523613002 -1.218392786132533 0.9471373901507155
Ar 0.6111301188952917 2.094518250645298 0.4160865023241861
Ar 1.335827018676444 -0.362065470866723 1.618661208708936
Ar -1.28198494421409 -0.5772177243150269 -0.249618534409533
Ar -0.7678548397239727 -1.473676109346775 1.828159914565793
Ar -1.467857416905476 0.4950135120830037 -0.661107168048648
Ar -1.224270668257667 -0.5232289011119329 2.053980568843089
Ar 0.6344397346147583 0.2508898140976047 -0.08541781143014671
Ar 0.5596700650827651 -0.5058600798884658 0.8280338856257665
Ar -0.4766518983488132 0.2767117394135952 2.339236746435919
Ar 0.3727404300413265 1.300711660520674 -0.4532087957639347
Ar 1.25486728490829 1.264997575845841 0.2113437696055729
Ar -1.806308876470721 0.9175273646249101 1.132475184308679
Ar 0.5120928572398046 -0.1853166288536676 2.296286206054216
Ar 0.1688311407113151 0.5528481510832339 -2.163595300020263
Ar -0.8469217673993564 1.222548862642867 1.864565156142673
Ar 0.9288916500568433 1.431127688397065 1.274452379732511
Ar 1.182311099231889 -1.460644321552295 -0.7429210320439481
Ar -0.9552752814187602 -1.740513248474614 -0.2053568117455804
Ar -1.06223570547124 -1.887404543255053 0.8616391316291435
Ar -0.6130869704293975 -1.098548245084937 -0.9978896043185499
Ar 0.5006720020247079 1.415705223850029 -1.509032892731902
Ar -1.906177582025073 -0.1846873088982444 1.250613705562817
Ar -0.4003700076529418 1.889403991257433 0.1209108164698919
Ar 0.1967020610651861 0.430387343588074 1.425204390858195
Ar -2.696732413332214 -1.136298922722032 -0.2853845916917245
Ar -1.627504232823233 0.4877981879323435 2.149003454358148
Ar -0.2107915921484349 -0.3438832469001464 -1.652304046350723
Ar -2.700152035130852 -0.982106221534337 0.904294561279819
Ar -0.4205715523001412 -0.09201447302565699 -0.6084389078616912
Ar -0.259406784307476 -2.38485318133152 1.440213849625279
Ar 1.155252326357699 0.645174939903027 1.978576292131937
Ar 1.378152868167988 -0.1134121971396647 -0.940751477458737
Ar 0.7357491043688925 -2.083351463600054 1.065665969315289
Ar -1.023481342257239 -0.7272274966343122 0.8385808033251494
Ar 2.033305435275925 -0.2877528459762002 0.7929951390486275
Ar -1.255943791387022 -0.310264331674938 -1.350832813343302
75
algorithm=ssw size=75 seed=0 index=3 energy=-361.2150891211288 entry_id=3 visits=2
Ar 0.1910181950206813 1.073553225785431 0.5110549150535231
Ar -1.019763517939454 0.1369972369099385 1.214958275591103
Ar 0.5539003089371849 1.950120996412009 -0.5199698936682258
Ar -0.9144011210063825 0.7829746031851987 -0.5122508342308968
Ar -0.4558480733608132 1.675916967388787 -1.141607009905734
Ar 0.1223500771839374 -1.846168687674065 2.384832466892507
Ar 1.767557351025655 0.5443367110916661 0.1125802430218276
Ar 1.058153734922708 0.5327374429642426 0.9504227832946355
Ar -2.497084377831733 0.3113453195433631 0.2137473501419313
Ar 0.6272367987029127 0.3068891996952074 -1.156826863744085
Ar -1.388659705585592 0.1180844100945267 0.2206434619419702
Ar -0.2834561298385362 -0.5704087830615665 1.481453314957785
Ar -0.3607720422099521 1.726447302409678 1.202919771356912
Ar 0.6823335269412109 -0.6626863985927112 -0.7037763072207748
Ar 0.4205883627897954 -1.806081792079662 -0.5985635276648191
Ar 1.162105868012841 -0.382080711906264 -1.779640122334158
Ar 0.8190698604792919 -1.348916656141343 0.2718660179155671
Ar -0.2316664072988559 1.407347492230215 -2.243136879565102
Ar -0.4327306816432365 -0.8787678795541803 2.530267565720756
Ar -1.273154623553963 -1.650693118053874 -0.9423355533499529
Ar -0.046567564718253 -1.444588560997099 0.8962214520488267
Ar -1.696324077997903 -1.466862129109481 1.236535441227469
Ar 1.456754202368524 -0.5146085640984482 0.1255155013593906
Ar -0.9045622715046567 1.015896238120786 0.5952885766802503
Ar 1.216175372300901 1.05223113593237 -0.6628521992622139
Ar -1.617290478339239 -1.562575818646618 0.138189501322037
Ar 0.1851034399157358 -2.346369172681784 0.3490295507820483
Ar 0.5994496188029511 -1.133225358504025 1.719107532167888
Ar -0.06213702704185413 -0.8170482442659468 0.04072199241862194
Ar -0.0788336840746582 1.186712936955437 2.160983153799603
Ar -1.934621379803586 -0.8122872470254291 -1.146724532727333
Ar 0.6562100268906942 -1.33350096497848 -1.557497613279812
Ar 1.25059562418177 -2.299522351354829 0.02531031106308043
Ar -2.117690534557109 -0.6397794479474158 -0.08730448010924043
Ar -0.3632852315446975 0.6335564050697565 -1.483829635882037
Ar -0.3127630868354608 0.1273844854397092 0.4087396814855198
Ar -1.81235277449037 1.136375510696143 -0.03722699000779029
Ar 1.472309290314766 0.7087919024995188 -1.695894081371955
Ar 1.507061897189206 -1.085855786133338 1.064154947524149
Ar 0.3776728786257925 2.186722679132016 0.5388749942139962
Ar 1.245760355040431 -0.2496356819878407 1.703891819582092
Ar -1.080900419722711 -0.7119286928757669 -0.3815566176930439
Ar -0.7139043711216732 -1.5645353935761 1.726000487263873
Ar -1.822967377228475 0.2130129744456042 -0.7528754739808973
Ar -1.305910678745769 -0.6734065421833938 1.869632509870634
Ar 0.6925909413409866 0.2245629154848842 -0.04727551646117272
Ar 0.5773202079342299 -0.437555031067404 0.8393103060433239
Ar -0.6795730273239114 0.1984610517136432 2.232643728555527
Ar 0.1171813557992914 0.9806301623009072 -0.5335838653912734
Ar 1.18071503996909 1.458890413841082 0.3395591505389544
Ar -1.892666017081173 0.7565210767937336 1.001986640679522
Ar 0.3430257636554954 -0.1639509716617618 2.275324342442094
Ar 0.4878620829711063 0.5077214230356366 -2.213439341263414
Ar -1.085655731433282 1.092226363402736 1.705379180499881
Ar 0.6972120301231394 1.507583935506558 1.362193731467166
Ar 1.469875112796309 -1.382974294675537 -0.6304498714481741
Ar -0.5712106046300456 -1.715142860913264 -0.1190877417713952
Ar -0.9154364468173904 -2.122105902671058 0.80770955846003
Ar -0.3038141503725364 -1.107476079455957 -1.009901608095158
Ar 0.5528177713493523 1.349710885470969 -1.479854247493353
Ar -1.958580715269689 -0.3894981084839834 0.9996819135388008
Ar -0.4711059562283198 1.767572690485309 -0.04112765228791641
Ar 0.04596284590518668 0.4573709510243958 1.384458127878476
Ar -4.912426190504256 1.385945376058922 1.889238314253189
Ar -1.800435410412508 0.2817150105840451 1.983237966931347
Ar 0.04553333685792323 -0.3895016816575884 -1.722744934184929
Ar -2.59953391063433 -1.255875965303553 0.6629627154556159
Ar -0.2413558501177575 -0.05150791350084759 -0.6553355931949589
Ar -0.05710387733915563 -2.408732899630236 1.443474925601615
Ar 0.930101200056029 0.7261878179215889 2.060016731705325
Ar 1.593627841581659 -0.0153201447684719 -0.823921579721123
Ar 0.9134892601379747 -2.017870506337415 1.121300353952521
Ar -0.9677728663831477 -0.848694363538848 0.6921878574464017
Ar 2.016433418961401 -0.08497326402725462 0.966694930664137
Ar -1.010824279489283 -0.2627479479817331 -1.379177296105011
75
algorithm=ssw size=75 seed=0 index=4 energy=-367.1586846945315 entry_id=4 visits=2
Ar 0.04095448547193488 0.8293804342574229 0.8947796306102854
Ar -0.9964208044967231 -0.009390759365626979 0.05683008283731384
Ar 0.3017164950274628 1.779331607298815 1.444933075040102
Ar -0.1441507974911509 1.058523126875367 -1.638188559519602
Ar 0.06842980985828898 2.069558823936323 -1.184668986605552
Ar -1.83254149336784 -1.935399008785939 1.918953853981291
Ar 1.466358481565174 0.3112695504207149 1.872441096279619
Ar 0.4103265709245418 0.154484966471406 1.662467016397692
Ar -2.152911303514697 0.2457712317253346 -1.416964090793281
Ar 1.087345543618482 0.7060345580683081 -0.138139227671062
Ar -0.5346726675197423 0.495374707520378 -0.8126670133892657
Ar -0.3570353180632628 -1.202378206744257 1.212271817267989
Ar -0.3772591681921543 1.01423371518804 1.868951471211226
Ar 0.8371597713211325 -0.3988796170441213 -0.3558716588882251
Ar 0.704122662596441 -1.500853732384386 -0.5077682871984504
Ar 2.320848157360166 0.6650425206011745 -0.1386209356363275
Ar -0.5500174542972386 -2.061230521901535 0.5502855378742681
Ar 0.9747946856041645 1.988744797703361 -0.525455168956238
Ar -1.103293262717952 -1.042748742357347 2.006204215303096
Ar -0.6835597207231184 -1.089060123145905 -1.474522542015926
Ar -1.353399883217637 -1.525928356314557 1.063095488599263
Ar -1.936809794170461 -0.9254912688095246 0.3867555186575773
Ar 1.256092178991369 -1.132005211468117 0.3768218217866874
Ar -0.6613177901669534 1.039745103188914 0.08460905360550719
Ar 1.050649120269856 1.028621615118049 1.165661686216336
Ar -1.387278481189331 -1.18092223060089 -0.6348028946829222
Ar -1.557976526786525 -1.95166022329987 0.09020452423338475
Ar -0.7001428014884623 -2.098804439202276 1.715158778007374
Ar 0.1861215233835953 -0.9496629634422389 0.2645965869731984
Ar -1.012346700382188 0.5974941821741458 1.014134244972251
Ar -1.356980067636389 -0.3174775279863216 -2.101498437761991
Ar 1.65904647953523 -0.9670779262574221 -0.7383308454133388
Ar 0.50236881389843 -1.843202593513571 0.7709341988451335
Ar -1.237752787975888 -0.2260762801775973 -1.043943827879413
Ar 0.8876948384219406 1.288295185511808 -1.402193907021376
Ar 0.09603157870661264 0.2643532613335968 -0.008329341147701161
Ar -0.8622904370182598 1.51715496168185 -0.8924490577457045
Ar 1.666863339487614 1.48408504805333 0.3223715556028602
Ar 1.388968801848775 -1.565514759572234 1.422786698621636
Ar -0.6791410681467185 1.668832923408776 0.9555149555153332
Ar 1.104023207056203 -0.6928469904632566 2.172679205306387
Ar -0.2957670185487304 -0.5476165936295492 -0.6058804212248663
Ar -2.132810076716169 -0.9030040528693777 1.504429915144456
Ar -1.189997906343437 0.7104932665909336 -1.639137905191098
Ar -1.241445530955109 -0.4655712327123033 1.061430804912385
Ar 0.8882590406529544 0.04363629740702181 0.684282943408328
Ar 0.6243358281379523 -0.8254768875019307 1.233049576155833
Ar -0.7137037701224882 -0.008418306988082195 1.871313150084252
Ar 0.2062044027441626 1.208835928277251 -0.5513761796338481
Ar 0.6836105425987203 1.05629154375189 2.208281121351953
Ar -1.57625307205947 0.7046183623160592 -0.5310805501050441
Ar 0.3740234341264338 -1.725282719958068 1.857414680066758
Ar 1.772147065360634 1.296193753081614 -0.7959991081291363
Ar -1.654033632951496 1.277551566009945 0.4339320493130489
Ar 0.013435073294896 0.2687159739570861 2.660047803094038
Ar 1.793305829882758 -0.2397161680986834 0.09948858159989046
Ar -0.3835556520674599 -1.643308764860649 -0.4971276844277643
Ar -2.436331301499073 -1.399764025280928 -0.4536229919999694
Ar 0.4714585261689759 -0.7834128093127756 -1.328530085838067
Ar 0.5609662425193056 1.598966000569409 0.3866857169762385
Ar -1.945827041398374 0.2001489107411459 0.5413488012826106
Ar -0.3063252333790129 2.064933069272562 -0.08873627016144038
Ar -0.2390246646026681 -0.1969526780552298 0.8836277892867822
Ar -2.068180790904068 -0.8631851946816907 -1.414782790418142
Ar -1.813469511281138 0.1937640501791491 1.682984278443972
Ar 1.603057847026212 0.1729023108052955 -0.9275265564233088
Ar -2.115210095053484 -0.2844548116098651 -0.4442925941245332
Ar 0.5009707681592011 0.3070568524977796 -1.077611409730099
Ar -2.361232377163455 -1.841767704289375 0.8718384408789145
Ar -0.003411139703820731 -0.7523011016676502 2.154955548461344
Ar 1.924606282416166 0.5093398741044797 0.8652167915813173
Ar -1.472020642974488 -2.585655775870573 1.026356020511071
Ar -0.8545186794763636 -1.040841143401971 0.2572986514023169
Ar 1.681396616948288 -0.5216244966445651 1.192951559111631
Ar -0.3355488634801881 -0.07167206605985389 -1.698173183133599
75
algorithm=ssw size=75 seed=0 index=5 energy=-368.4104266377448 entry_id=5 visits=2
Ar -0.6137595479331186 0.1598773666826821 1.249835791810932
Ar -0.9594058263750789 -0.1176426324334293 -0.5488056461173716
Ar -0.7193553099552743 2.01571466225127 1.540157208705113
Ar 0.1833940198030754 1.512712591997751 -1.292103936309474
Ar 0.1399825570833647 2.320749942519171 -0.521166583055419
Ar -1.827649525884452 -2.127283233822783 0.8825029691177089
Ar 0.3641806453363119 0.3662631194349565 2.616082267398946
Ar 0.04428135079931485 -0.3575816954358222 1.902449068074054
Ar -1.230773973330726 0.01560330021068775 -2.318831252990612
Ar 0.5376017488616084 0.8209606804591087 0.4955728408932998
Ar -0.3790247032861632 0.7040689394041632 -0.8947770897348621
Ar -0.01868744700499849 -1.812912813409376 0.759432557302435
Ar -1.22491329471087 1.031130109317398 1.642371405251397
Ar 0.9683437880636724 -0.07708891887581847 0.01504950912547182
Ar 1.553331032004915 -0.980670817812724 -0.2626630615091092
Ar 1.34430687104707 1.375186481754486 1.082196549556719
Ar 0.6160912146589133 -2.092242690638051 -0.1097096140872645
Ar -0.2700531671313701 2.207783504966851 0.560245143260261
Ar -0.8958728351635955 -1.893502022240538 1.476634991638635
Ar 0.3701322949672347 -0.6812248704185443 -1.704826513732901
Ar -1.051284164196797 -1.498166105947525 0.4913865214641596
Ar -1.343865315517357 -1.090868567327758 -0.4346709568817676
Ar 1.481278768963494 -0.7406735129793576 0.8348508312186748
Ar -1.201763218960358 0.9909786058373059 -0.2844099068468888
Ar -0.2391311635443281 1.196195303573859 2.093975784533949
Ar -0.4476980195486573 -1.029824515338963 -1.024097903544611
Ar -0.4431119414013097 -1.848944507889676 -0.3206527761072588
Ar -0.8138612519311764 -2.546842731536007 0.5243838479096934
Ar 0.6236836256119304 -1.073858505817006 0.2855559472455991
Ar -1.443304103279192 0.5876710458343121 0.6746014183199404
Ar -0.1037099161021062 -0.05209918749413592 -2.510837950169216
Ar 2.041110162304388 -0.0406406943134963 0.111186872353147
Ar 1.203736946273119 -1.826518520602019 0.7997839903889664
Ar -0.5239681573470441 -0.1078025211664696 -1.529604269442894
Ar 1.106595317928864 1.740540277715374 -0.7218280575379508
Ar -0.3721554671559662 0.3250548627183258 0.1942943398621298
Ar -0.9380578717724263 1.560674420867229 -1.229911370155984
Ar 0.3692394959909072 1.749742248334161 1.35036429521071
Ar 1.524762607082709 -1.357472244522645 1.780913355577669
Ar -1.281142936710274 1.669314211233704 0.6357751044723633
Ar 0.7486710373210574 -0.9816098344685779 2.501393669280815
Ar 0.148754137523617 -0.1980606510207945 -0.6699282711285716
Ar -1.640405329073447 -1.065690541841098 1.291642909321243
Ar -0.5204571832966068 0.8727532335988779 -1.985098095224743
Ar -1.233590307586936 -0.429358439083506 0.4965290154556097
Ar 0.3298307013632595 -0.2023770204819391 0.8515231888856413
Ar 0.5733939537652186 -1.111104901852854 1.360469858192203
Ar -0.983259398951968 -0.7700015681520415 2.103155635894929
Ar -0.1668782647916592 1.369884822832135 -0.1155428879478568
Ar -0.7470726641115041 0.267789436013773 2.337907789947657
Ar -1.394694914844122 0.5296904165885834 -1.311346517515123
Ar 0.5920222565604171 -2.140574979570337 1.671600925549106
Ar 0.7430862164976363 1.854740017144803 0.2954115624941356
Ar -1.988866335583293 -0.1825292206545528 -0.28818604565326
Ar -0.2310021975558178 -0.5881369439110223 2.911422193574421
Ar 1.385201650632908 0.3205516424822481 0.9335093904449052
Ar 0.5898660284324946 -1.1993685658907 -0.7707441176910214
Ar -1.201012152023502 -1.757324749646574 -1.28192954266046
Ar 1.167966925604922 -0.2248598038362193 -1.039002928854007
Ar -0.3968682106900051 1.140373008076978 0.9284398187419668
Ar -2.263164394720585 -0.2109052917965721 0.7848488402819779
Ar -0.9465817849867835 2.117922519422526 -0.3037725647402896
Ar -0.4791839365299438 -0.9050235011443112 1.148142697112697
Ar -0.6854114855606105 -1.002476287957842 -2.103643701654357
Ar -1.602249795071884 -0.008149333602501096 1.622692349032592
Ar 1.512938890946253 0.971866454570834 0.03832800711811138
Ar -1.475073341756532 -0.6126549512608481 -1.396837799408788
Ar 0.6455487657805297 0.7674480335286014 -0.5843031904415235
Ar -2.104690729793003 -1.196980941431306 0.3058645891940206
Ar -0.1441042371288883 -1.441272513356611 2.107008808185816
Ar 0.4662183367224855 0.6190131222273854 1.537589304245933
Ar -1.549894833384822 -2.138928773065344 -0.2313681548177966
Ar -0.3507692413306626 -0.8038249363049913 0.05323204151670904
Ar 1.115327891343746 -0.2565174736416153 1.788220727858683
Ar 0.4289077911988218 0.4245818848410828 -1.59876916106064
75
algorithm=ssw size=75 seed=0 index=6 energy=-372.5608715095959 entry_id=6 visits=2
Ar -0.3134145113832303 0.5955396487218323 1.075894300988267
Ar -1.07073007250972 0.1995957845768294 -0.4698153823863316
Ar -0.04019647706702134 2.419867104508735 0.5073729688523919
Ar 0.4129000213366935 -0.07851687166318222 -1.885973861200534
Ar 0.4020236744162235 1.002721483535961 -1.602526841583514
Ar -2.007610155942193 -1.346771634376465 1.340780912276256
Ar 0.9825937007331578 0.8623027301155798 2.302635813785409
Ar 0.2681310898892997 0.1943040271356412 1.878746732886515
Ar -2.022639470779273 -0.6467371247554644 -1.694470732765416
Ar 0.9118587707077981 0.5611400915036409 0.1616686202470069
Ar -0.404236936010857 0.2978419256260121 -1.280556553512078
Ar -0.1630214196645879 -1.519524045537135 1.214382587916061
Ar -0.64186232862854 1.645150045687501 1.093459301360028
Ar 0.7024874275942684 -0.4703770050888978 -0.07860474703108634
Ar 1.522674265039155 -1.928093619907927 0.6786336029733165
Ar 1.759543381642685 0.6894335979902906 0.8392247826611092
Ar 0.4083574032493907 -2.181528719533751 0.5347343118779393
Ar 0.4678757804711953 2.0082004853408 -0.3926147222864423
Ar -0.972220322579427 -1.244207893064927 1.939880044718116
Ar -0.6382158268038836 -1.550890665808899 -0.8559115229021815
Ar -1.093075265384794 -1.086907773060864 0.8733881013962791
Ar -1.879993455656931 0.4698899474554769 0.2303111723416441
Ar 1.573946585367049 -1.078273316654114 1.442866608724824
Ar -1.057104242424164 1.174609851373052 -0.9501199481722319
Ar 0.4876760148946903 1.9095178961605 1.29751900053793
Ar -1.123661506881316 -0.8501274292182842 -0.1685974720060416
Ar -0.5947370070658874 -1.79438475921902 0.2144343182824128
Ar -1.127820035461448 -2.106027621624077 1.175971823365166
Ar 0.7593224705895094 -1.169876392854726 0.7139514785256551
Ar -0.9028094823549091 0.9982758390319826 0.2202476854525418
Ar -1.157703526505709 -1.406578106598278 -1.878764923227436
Ar 1.457194769640155 -1.208313370542313 -0.1821838447505315
Ar 0.816833825396958 -1.897765508595048 1.546132379106156
Ar -1.069720094435798 -0.5820935547419105 -1.211582876648814
Ar 1.365533882017926 0.397986156876551 -1.523960361354813
Ar -0.1154406373153156 0.2455738635350049 0.06444263362110655
Ar -0.6619750598615995 1.049248102971324 -1.993742314869383
Ar 1.174162775514083 1.593838091486061 0.4104774257125746
Ar 1.136612787681355 -1.340974183633072 2.460845565823517
Ar -0.6343019913850635 1.927733093386838 -0.2530271595181625