75
algorithm=ssw_clip size=75 seed=0 index=0 energy=-277.9178483656908 entry_id=0 visits=2
Ar 0.783093933161277 0.829791188063039 1.320884951694112
Ar -0.4111183863480756 -0.550542409995375 0.8165222316719599
Ar 0.9291084710561944 1.600009626316826 2.11983614510613
Ar -1.219640436296194 1.336413733072923 0.04833873232295419
Ar 2.242091971915655 2.443484943537238 -2.078697600929035
Ar -1.462715029708144 -2.883995180197298 1.765934757834442
Ar 2.252030319396798 0.3498889498113759 2.87882900956565
Ar 0.9660601592677458 -0.09644505435561011 1.833817285691456
Ar -2.720094219568368 0.8314655350066659 -2.242962310983861
Ar 1.933850789979035 0.3507402596347987 -0.9888000236130123
Ar -2.138291414111838 2.002966004813286 0.1352885098657763
Ar -0.3741224916863949 -1.537294339565102 1.327873380375392
Ar 0.4901402126681256 0.6508675853857985 2.430974955982082
Ar 1.691792155148722 -0.5582430178638662 0.2771510030336731
Ar 1.04281540156932 -2.198501484255215 0.5540127866927922
Ar 1.788521257754429 -0.7181891446199544 -0.8257657403144734
Ar 0.007053756080870573 -2.383539340612175 0.7914346563360897
Ar 1.394523924267854 2.506526256760427 -2.880451629445588
Ar -1.174041994102004 -1.775813579436678 2.022251578549188
Ar -1.992347758586872 0.06038347829008298 -1.809111764154817
Ar -1.051201751933365 -2.238616318690261 1.017332177776322
Ar -1.673429097346702 -1.891892236297809 0.2254363834077609
Ar 1.320031057514837 -0.9390811651233817 1.239001092129995
Ar -1.819547323692029 3.063912077866106 0.2935226051265286
Ar 1.675650376003238 0.1862218248115809 1.062029074542046
Ar -2.47691270697158 -0.9399377109632405 -1.865128456781637
Ar -0.7762836077411037 -2.606722955327465 0.03735972832724566
Ar -0.3497849278649486 -2.513487674697601 1.83864503836085
Ar 0.4251725622758148 -1.279579643595619 0.6115005678724348
Ar -3.392579061073549 0.6271213786267582 3.615187613666112
Ar -1.802667975414867 0.5274552634713234 -2.800923725124216
Ar 1.14377598449324 -1.379763123766397 -0.1882830807544358
Ar 0.6561139254975772 -1.867813894705257 1.558581385221159
Ar -2.519700784461996 0.7788734425194012 -1.15066331613502
Ar 1.234382957525897 1.900694338806771 -1.900644023358136
Ar -0.1279760203970272 0.7556356614901925 0.7140763275701327
Ar -1.209750430574418 2.38667809733447 -0.3596771555612631
Ar 2.435652339890104 0.5006743244970219 -2.06774231574348
Ar 1.063189988113546 -1.088094100588741 2.320262692398843
Ar -0.1314334151029104 1.282723816987526 1.728788885710026
Ar 1.234417667556371 -0.09528372108884174 2.873331383786757
Ar -0.1448189317087512 0.02033115078954483 -0.0811402294710019
Ar -2.047319025456366 -1.98919967595246 1.313659763237901
Ar -1.83346967174558 1.605549550569954 -0.8567447077319489
Ar -1.343755818925687 -1.156095679740314 1.067372667046174
Ar 0.6476815133875817 -0.1704659621741446 0.7512063868395945
Ar 0.3176440806261812 -0.814006770525562 1.584013590439389
Ar -0.7370715852086407 -0.6953191708642661 1.914031700762961
Ar 2.209565267269455 1.42066191417572 -1.500673816574823
Ar 1.635195612137412 0.7235636643343799 2.047194863954168
Ar -2.609747758648198 1.775866855289802 -1.64893538519627
Ar -0.06454703287616434 -1.505639749939016 2.366765880578417
Ar 1.335374902352292 0.7695978742183036 -1.925039422579496
Ar -2.922031273573332 1.658979968103357 -0.5850209878876244
Ar 1.319510350014843 1.014506138809635 3.053298580938077
Ar 1.940432124307403 -1.578789375318315 0.6246475493935602
Ar 0.2416494793723818 -2.064858790833552 -0.2200415049867949
Ar -3.492602812945768 -0.8366712136523041 -2.334660718882358
Ar 0.04139738367009758 -1.008162134588718 -0.3864105195031491
Ar 1.96404724262396 1.488111514521636 -2.625438812040857
Ar -2.251156016401755 0.9133748477669718 -0.0801732814200956
Ar -1.218939407911053 2.216510344739035 0.7454983710049343
Ar -0.08236663314563138 0.1628398866491083 1.628826735603775
Ar -2.650164345079487 -0.1921221810728706 -2.679569127688262
Ar -2.237953301090913 2.47176767216672 1.145750396070127
Ar 0.7903257558282168 -1.0819076655974 -1.184164068649029
Ar -3.099784682820815 -0.03090434001910357 -1.658192391780675
Ar 0.8667783201882948 -0.2974712609167446 -0.3597019251225315
Ar -1.722426611611157 -2.971607496183039 0.6321978350848356
Ar 0.183577413069484 -0.4145849248695079 2.572443810694359
Ar 2.406722457812801 -0.6688762879553795 1.101439436469138
Ar -0.6695843317762102 -3.252314282102101 1.002848891355012
Ar -0.6182181647085583 -1.535073041147199 0.2909669185164679
Ar 1.973306924820935 -0.3929645099893653 2.070213357861332
Ar -1.716247103469975 1.134344313401303 -1.857034893227222
75
algorithm=ssw_clip size=75 seed=0 index=1 energy=-366.2816959284574 entry_id=1 visits=3
Ar 1.024444596543279 1.154299954867299 0.8483497915200144
Ar -0.09719213138225166 -0.2358384413874893 0.9966786740660488
Ar 0.183887516914164 1.830915257425062 1.160813946672201
Ar -0.4023960503061074 0.9711822297829752 -0.3782738454112517
Ar -0.2570017305211568 0.657493369772386 -1.39707715156667
Ar -1.391054786714399 -2.396128040689108 1.031158195822079
Ar 0.5509305771000074 0.5372965674952235 2.820293739894702
Ar 0.918091311542432 0.08904797743963062 1.022900905510708
Ar -2.144557480433121 0.2978854352910605 -0.3912509345723961
Ar 1.658329130999046 0.6263156371323167 -0.96605042877182
Ar -0.5404288287720024 1.193741116707686 0.6580814144868106
Ar -0.3292982102493787 -1.278579031742175 1.097777764506164
Ar 0.1417850573988543 0.7409765720706752 1.383302384264038
Ar 1.314680666158555 0.3771516348705229 0.05462777306455311
Ar 0.6914349927759482 -2.548402734880403 0.3275556040428402
Ar 1.963881083332327 -0.3480980255641564 -0.4915326750743969
Ar -0.1710902321757265 -2.794443465856324 -0.3342286418473561
Ar -1.120476583355373 1.336179780037295 -1.072962475116613
Ar -1.345385358955369 -1.415485341397636 1.544843416263802
Ar -1.109150626950772 0.2526785761947646 -0.7429448375404566
Ar -1.172775588129751 -1.504993324402844 0.4402496900429849
Ar -1.571291689471135 -1.509730265660981 -0.5801724870950676
Ar 0.7220518812613813 -0.9538860131741916 1.158753194952986
Ar -1.789403419094028 2.004176771922873 0.2248264518709966
Ar 1.922419672710434 0.4359863835036675 1.007034617944261
Ar -0.7895748888993339 -0.7906007595587339 -0.9169728200657723
Ar -0.4970582069551772 -1.752673305065206 -0.3951681450395453
Ar -0.376038378658158 -2.256921390884137 0.605839342523341
Ar 0.3539268051143133 -1.517043311104797 0.2786103836022526
Ar -5.215899421030978 3.08353780165536 1.038072710982633
Ar -1.861080106389858 0.5838875810503109 -1.440974250928833
Ar 1.252713494578044 -1.188312794804516 -0.3332670096117851
Ar 0.4858367761117178 -2.015579769753236 1.271602899411591
Ar -1.805334892153591 0.2347273334851888 0.6613178618900867
Ar -0.01810629113870766 1.718073081172029 -1.029204130823399
Ar 0.2686313771508754 0.5480988405824371 0.3196568532749548
Ar -0.7520612682750638 1.950262780070252 -0.1583742879862439
Ar 1.688399171261665 -0.282940508504312 -1.597574307241489
Ar 1.592139102613805 -0.4600397846975245 1.639077399333682
Ar -0.6774518056774709 1.419897687160122 1.732280928317402
Ar 0.4366434372255609 -0.1947729955401188 1.954389033952527
Ar -0.08459614351825263 -0.02158219851223718 -0.5468062200000559
Ar -2.10235370854409 -0.9498211168462247 0.7382670492827781
Ar -1.400680687869643 1.023202058395867 -0.01503926601519797
Ar -1.127221611790779 -0.5541349258278739 0.9504404304500984
Ar 0.5965415074437076 -0.4735359484630465 0.1750490740095516
Ar 0.1840664792628418 -1.283532532699281 2.063549149998119
Ar -0.6247284255075983 -0.5459566502361881 1.907307714553673
Ar 0.8065500967128969 0.433733169901246 -1.685764867245388
Ar 1.159986698990501 0.6567462348437392 1.893486389493312
Ar -2.4341464357072 1.093547621423304 0.3520802306774138
Ar -0.5242629314911095 -2.143594833661114 1.717863745133869
Ar 0.6179793591904357 0.8422273770992359 -0.679939372348857
Ar -1.563573354406836 1.267382808009121 1.043380496078411
Ar 0.3500091431441512 1.414811030327317 2.189943992266442
Ar 1.365973157332054 -1.684951998610343 0.64907653329531
Ar 0.6014740430917567 -2.045901682236928 -0.6617838713461803
Ar -1.832785115030484 -0.5028668501727955 -1.119434195798072
Ar 0.2363886498594901 -1.035058804487988 -0.6920645617513925
Ar 0.08956488548450728 -0.3998539513293484 -1.556782355733841
Ar -0.7706030220728382 0.2080963061070399 0.282998649812695
Ar 0.325747464169228 1.624578040513773 0.08089562704079487
Ar -0.9220349927671166 0.4202185043721999 1.343548183135997
Ar -0.9864372199182905 -0.09559084379008834 -1.759597102535025
Ar -0.9016731640334537 2.172786450520195 0.9247815313979263
Ar 1.006466616932041 -1.139405725042466 -1.428163731403141
Ar -1.483014884339675 -0.5413817824041165 -0.07858221402680515
Ar 0.9359837118257226 -0.2107950715922713 -0.8131007901825363
Ar -2.144957272324107 -1.965375336580003 0.2893897476562441
Ar -0.3947723921036431 0.4860774951737857 2.291490041928469
Ar 1.617977078278742 -0.5941354471437864 0.5382372830100253
Ar -1.234261024152189 -2.488898967048566 -0.07526110205167424
Ar -0.4389051084828391 -0.794713491860127 0.1239696590319829
Ar 1.298708213633391 -0.232542957256485 2.654221638804531
Ar -2.160777690199185 1.385372858186916 -0.6937097817615754
75
algorithm=ssw_clip size=75 seed=0 index=2 energy=-366.7430792273658 entry_id=2 visits=2
Ar 0.7021999587122177 1.27105041416933 0.9502257959933512
Ar -0.0462975264979712 -0.3608806540052941 1.049451321349175
Ar -0.1803941652033566 1.66790177395203 1.521133201779875
Ar -0.8463898019232932 0.8868433382826203 -0.04773758623045755
Ar -0.8171685861493955 0.7368050023063044 -1.112673864365092
Ar -0.7989534464555264 -2.759065483490563 0.9651378113138186
Ar 0.8489115025065915 0.2250182445460981 2.810473478584822
Ar 0.8623730836251337 0.1984581510269778 0.9790297576104222
Ar -2.369230104192151 -0.1815272881281845 0.0967476235115437
Ar 1.105752672054764 1.116193942347683 -0.9791977204501415
Ar -0.8383990517450089 0.9467927361614855 1.022122037441051
Ar -0.01432234944496715 -1.431035666059669 1.042529663542092
Ar 0.04217160089362224 0.5932074667979703 1.55059495082029
Ar 1.013305951866839 0.6777091113849175 0.02746285409288496
Ar 1.10312756407863 -2.32488202746221 -0.04956512773124429
Ar 1.695573685890204 0.1924239226292998 -0.6960539397850399
Ar 0.2142964576496653 -2.694517862043906 -0.6091172155087361
Ar -1.739646135691983 1.144075206152196 -0.5633607103923048
Ar -0.8815258449598433 -1.860427053337986 1.606921471554279
Ar -1.430862695805372 0.06494475575605793 -0.4098636372461515
Ar -0.8913145069915893 -1.78142023407426 0.4885311310282411
Ar -1.454812709813502 -1.765629329628033 -0.4506599096518217
Ar 0.935646222881956 -0.8714575500414242 0.9956284362988583
Ar -2.290083602600282 1.475445128310253 0.9180486823761341
Ar 1.754968850587169 0.7643129311193472 0.8852437801424189
Ar -0.9258751954880415 -0.8444431833999926 -0.7886711805541867
Ar -0.3383355961187703 -1.76247347991352 -0.4663148319399475
Ar 0.06710041326884048 -2.331089898149285 0.4218680613590408
Ar 0.5447580425787771 -1.404928164251879 0.1055608895934052
Ar -2.905562311149366 5.362235110317265 -1.300704964256215
Ar -2.351373784625145 0.2824052756574789 -0.9269231092341249
Ar 1.228606759727504 -0.8027222652112866 -0.5704747127479795
Ar 0.9590430507779235 -1.964228153693955 0.9840481563869512
Ar -1.840853066640724 -0.282291113524631 1.065805541366742
Ar -0.7582090313100994 1.775617453551324 -0.6220666801014387
Ar 0.01481978844222993 0.5613502474933576 0.4635489571799866
Ar -1.357960420360366 1.718354931332507 0.3743146179524474
Ar 1.226325080510678 0.31781102634397 -1.734428077354237
Ar 1.682498451443088 -0.2186842656629631 1.516244239209851
Ar -0.819722278764711 0.9997944544520803 2.132741896722688
Ar 0.6064174408668465 -0.298228119262509 1.892480557661444
Ar -0.3525853205061188 0.02480893440582453 -0.4123729927740898
Ar -1.853480881660368 -1.505575546961122 0.9995646823535151
Ar -1.748902303468042 0.6545480881206284 0.4654862135711535
Ar -0.9679409904444091 -0.9119356588686692 1.122152438959636
Ar 0.5327272595067023 -0.3298799738226365 0.1203813443797225
Ar 0.6560722431043619 -1.416019355221815 1.912558108668765
Ar -0.3177071757478023 -0.8943692086800715 1.983594610453979
Ar 0.2023269933112703 0.808413451262055 -1.586651054273111
Ar 1.117877350622828 0.7300839661132933 1.864918056185744
Ar -2.686881063340147 0.4285225759280838 0.9903690992408315
Ar 0.09832438029478659 -2.379252641827447 1.549947813666341
Ar 0.1085906815100575 1.045673591425319 -0.5133570756280714
Ar -1.761407657816213 0.7225570493571501 1.563548845509093
Ar 0.2552619781344309 1.135491403604117 2.454450136200396
Ar 1.619614773864288 -1.371090841767322 0.2926350333218288
Ar 0.7336309038953454 -1.748770540725739 -0.9283604621315076
Ar -2.026158268350527 -0.7946118601738512 -0.7862882862300852
Ar 0.1537459040881999 -0.859093850927753 -0.7561918591447077
Ar -0.2815982723112874 -0.1822518667036384 -1.482002288598586
Ar -0.915901467092242 -0.01362143337613731 0.5352667223836535
Ar -0.2144374510484716 1.64068350628341 0.402393685862501
Ar -0.9033263344893508 0.02709071796270563 1.634058025303846
Ar -1.41800473355151 -0.1232559639106936 -1.474236560325737
Ar -1.344151627577386 1.769876751468284 1.492538608143119
Ar 0.7901626092838184 -0.6913472450340175 -1.599645612388527
Ar -1.496632002141165 -0.867885833352921 0.172558181094025
Ar 0.6212091487490504 0.1193210333332163 -0.8519172924024366
Ar -1.749129554319456 -2.443758313135669 0.4143562731624726
Ar -0.2204513693857788 0.1091045392521228 2.495225904548692
Ar 1.609162844242405 -0.2467004254139882 0.3374876796352097
Ar -0.8256469399597004 -2.686140776543081 -0.1541893162106905
Ar -0.4040657733109557 -0.8838643238705347 0.1741779683988094
Ar 1.399228655662391 -0.7457027174806907 2.464513237000535
Ar -2.678976255405768 0.8978045835416473 -0.02720852346431662
75
algorithm=ssw_clip size=75 seed=0 index=3 energy=-371.5810271707843 entry_id=3 visits=2
Ar 0.2998475341379079 1.417910948775478 1.641416372896693
Ar -0.09323508894242384 -0.1871295578818258 0.9322741700071717
Ar -0.3284329235010858 1.135925928687206 2.529315870733131
Ar -1.442454282961297 1.066434968739896 1.023395156847083
Ar -1.821066005104653 1.489540225715492 0.1094387690998294
Ar -0.4492185923056413 -2.308162602147929 -0.3712637656570908
Ar 1.33396656137887 -0.2873854897721423 2.415567618079823
Ar 0.6162206489767172 0.6104038132561084 0.9897365218171654
Ar -2.600820963814219 -0.3877980516182302 0.8708169740335179
Ar -0.08560425502785769 2.398732138210249 -0.03250673116423296
Ar -1.015676835908773 0.5823961865078001 1.878914266837277
Ar 0.09275351685571359 -1.01996588431238 0.2854548590127706
Ar 0.04514933326091874 0.3485076806725307 1.86182583733807
Ar 0.2982201796133093 1.51679213863615 0.5042164316307928
Ar 0.7998576844800982 -0.7879418840286506 -1.353511793398955
Ar 0.7018522367265912 1.730670505215291 -0.5001071734481545
Ar -0.1725719875733698 -1.11299122293177 -1.787482330519149
Ar -2.494947834300684 1.212839940022865 0.9963409509501903
Ar -0.4014493256740008 -1.947026482261372 0.6745331832548873
Ar -1.992603392034615 0.3911980187652978 0.3994206285134448
Ar -0.8694691836520863 -1.328732203554782 -0.1354444997165259
Ar -1.757376770998982 -1.045886832106153 -0.7108465612447089
Ar 0.8485972580360648 -0.2192311564073078 0.3510293715111105
Ar -2.448173785264235 0.5416178233992175 2.464136275069174
Ar 1.300089021249373 1.420157619429284 1.035613119067524
Ar -1.552433200487104 0.03759100297130229 -0.5517087765476451
Ar -0.7545887268753371 -0.6416978484355012 -0.9917082172044843
Ar 0.05238730047725988 -1.393041285759153 -0.7445521502919019
Ar 0.2196482246013199 -0.3337498920537605 -0.5541918556454141
Ar -1.124802970625856 1.933882566620703 -1.547980497419613
Ar -3.06501517814689 0.4960585460836345 0.3560768137792267
Ar 0.4814112512531167 0.7169484079546938 -0.8800812406104072
Ar 1.028850384933831 -1.070859374737624 -0.3108256535563718
Ar -1.720247947524725 -0.7656108002032433 1.427305157336347
Ar -1.724786220819358 2.088056028215206 1.08600812179717
Ar -0.4104408575769953 0.8564113495049845 1.015398521938679
Ar -1.859987111263029 1.333955818637251 1.964227112522578
Ar -0.1366635860908213 2.187634490092874 -1.11392219975012
Ar 1.635120546872854 0.3002413725438257 0.957287119104689
Ar -0.561571842279118 0.07641093314153311 2.758796558513311
Ar 0.8249369613695196 -0.3290912501459992 1.459326067512837
Ar -1.01127554997977 0.7396876267782199 0.1142168827040673
Ar -1.575446727030602 -1.705117583240354 0.6538712275212519
Ar -2.0178267362517 0.3083631883152588 1.498768814287271
Ar -0.8147364242097177 -0.9843430098964377 0.8852892845641137
Ar 0.05328259845388419 0.5070952340326296 0.09614785516028175
Ar 1.044901800530637 -1.206655871429388 0.8005097967752469
Ar 0.1151792675274878 -1.171699791138225 1.400047229632444
Ar -1.099583709698178 2.142159077828622 -0.4574591739452847
Ar 1.122606470932794 0.6793354626535401 1.923299485265476
Ar -2.621442187745718 -0.4631143876566714 1.995745135017882
Ar 0.5390712358418295 -1.984575721573471 0.08616665943315366
Ar -0.7889915474198657 1.759324060973924 0.5265264501085735
Ar -1.599298061503621 -0.1906248656092767 2.385712276155311
Ar 0.5187305962495369 0.4017202158084694 2.825793689579324
Ar 1.264166763920837 -0.02571427428737128 -0.649201686879578
Ar 0.02889005454933007 -0.02199496031436381 -1.598522563260407
Ar -2.553632895289673 -0.3118561838625401 -0.2537433693960051
Ar -0.5608845045696818 0.3916231877839842 -0.7999036181876427
Ar -1.354423406958661 1.125366314911988 -0.8396373805777991
Ar -1.137198798302519 0.03782702167014999 0.9545262444880727
Ar -0.803537553274974 1.661274428842548 1.662094668916499
Ar -0.6914522102286287 -0.4740207177482885 1.819474667603531
Ar -2.384140446361753 0.7769404646840699 -0.5312623865893776
Ar -1.407175919849764 0.8210536001761949 2.85056796902747
Ar -0.3257767282744397 1.16156229422825 -1.506540556574609
Ar -1.679424518135942 -0.6615734687376426 0.3103950221612705
Ar -0.3266238241915126 1.378364699948499 -0.4134115280208631
Ar -1.575578607665944 -2.11810344963182 -0.3771906110730472
Ar 0.2584048388389174 -0.5988747461664059 2.364407636210047
Ar 1.103640651109867 0.8389678133499724 0.05371266114197638
Ar -0.93217063780789 -1.700304918142818 -1.181368519538732
Ar -0.6884543294930616 -0.289713444720854 0.03671635785208953
Ar 1.837489207187912 -0.6904470977685357 1.441748878910337
Ar -3.092252116089569 0.4193341358178206 1.490648115430818
75
algorithm=ssw_clip size=75 seed=0 index=4 energy=-374.276938559697 entry_id=4 visits=2
Ar 0.2817072439460656 0.6270803434747894 2.128028474129163
Ar -0.08107602459708145 -0.3756184730185771 0.6856263051842805
Ar -0.5433029735529538 0.07461426116939024 2.663997904489356
Ar -1.320496861430968 0.9065278467792282 1.185200204481813
Ar -1.472325144151035 1.761187014996503 0.5510225649689687
Ar -1.644438800114298 -1.334521062480521 -0.3730436727589406
Ar 0.953939465444385 -1.385197167636851 2.15242436487933
Ar 0.6585630310800156 0.1707633074440852 1.215570134909957
Ar -2.535901796268242 -0.105257703579519 0.1785298145973787
Ar 0.3287805884177583 2.320062748825543 1.100299560165536
Ar -1.118238574628769 0.008043395600169468 1.738621845343857
Ar 0.1448522890099518 -0.8242203387188402 -0.2690503502483906
Ar -0.09519016468887954 -0.3653777339341473 1.760072502005249
Ar 0.5216335437170406 1.239509315739886 1.188111763323192
Ar 1.165182285292463 -0.7513845120939694 -0.6960518837029995
Ar 1.135890872225072 1.821509453906368 0.4809007487280432
Ar 0.2459932542838782 -0.6956066153378562 -1.342933175676743
Ar -2.336299687386904 1.210938218567839 1.092216973982679
Ar -2.205343309900769 -1.671766994049564 1.065627193979329
Ar -1.792123346617189 0.7018166380168283 0.2461453039435265
Ar -0.777009193476362 -0.7637420973910446 -0.9199739644031808
Ar -1.513859878187172 -0.05305522350194982 -1.361030189896485
Ar 0.9134370001167589 -0.2802033928452757 0.2796583935199577
Ar -2.636873795952785 -0.0786286411589337 2.01703386673758
Ar 1.383065587431535 0.7399129198800812 1.740531640860689
Ar -1.203130132572989 0.7655615694288669 -0.6880062693236273
Ar -0.4083162000124118 0.2151950727471869 -1.316798271076648
Ar -0.5208415974319449 -1.73913073212003 -0.4050057512348003
Ar 0.5133889324871734 0.1375886206667591 -0.6605533881598675
Ar -0.4133896485616017 2.790492175062479 -0.5772638507793015
Ar -2.82630912442207 0.9800218491743281 0.1162579129942756
Ar 0.9153516444624509 1.146632134377293 -0.3646105717251024
Ar 0.5302790309604498 -1.671521187021507 -0.8066574969249708
Ar -1.786909662248944 -0.7946385150723434 0.60441949619167
Ar -1.529534762414311 1.809064353163613 1.699925111005562
Ar -0.3258906067507704 0.5535160763423678 1.218625483018292
Ar -1.901511320919737 0.7564219173235082 2.065327608866804
Ar 0.4819429676764908 2.646753979546176 0.05883691528847795
Ar 1.890685794736344 -0.7135921748013581 0.157004717717643
Ar -0.8990657786077393 -0.9195436926581153 2.30811809967169
Ar 0.7215526375707961 -0.9103501155088349 1.189530395702992
Ar -0.7436648874579638 0.972126279597095 0.2948355131496421
Ar -2.645429846549845 -1.218435676400343 0.1014725150396144
Ar -2.035584816854622 0.1169289791446005 1.141970746534685
Ar -0.8317594990667312 -0.8846470553396355 0.1427970747286377
Ar 0.2740291294734346 0.5930584924950815 0.3098330250884989
Ar 0.9616168258346877 -1.375975688929589 0.2104312494187907
Ar -0.07176065856534804 -1.478872794777165 0.626878973011463
Ar -0.59626374875078 2.466470041074905 0.4699620053508405
Ar 0.9630791684848894 -0.2811665992065878 2.1297896481314
Ar -2.774602381038177 -0.702700969597252 1.091642517543138
Ar -1.201513350563816 -1.785046779207394 0.5765038811239653
Ar -0.5249497911304127 1.627690506955897 1.179229182350287
Ar -1.849323089061115 -0.814583881165863 1.710912714726204
Ar 0.1499434136946932 -0.8308970823584149 2.696761635404277
Ar 1.582253212352764 0.2492104184137586 -0.3933989269595774
Ar 0.5623099571242688 0.9400967257753463 -1.41470144579644
Ar -2.273928049620503 0.4926446917394921 -0.7286613794393839
Ar -0.1515927119938556 1.008939881576025 -0.6126678881208815
Ar -0.8571016264797656 1.803796061969397 -0.387473885035544
Ar -1.075951313373157 0.00852498562775483 0.6639232488472063
Ar -0.7809262361742121 1.015467988853006 2.112475515231814
Ar -0.8751542266322464 -0.9302358189159676 1.214016284698906
Ar -1.959781827234098 1.53580377101025 -0.4201442841496079
Ar -1.68376827034447 -0.1822615424690646 2.632970230546706
Ar 0.2968717196981636 1.964841172109315 -0.8036966941911574
Ar -1.541765578193368 -0.2137796160233953 -0.2924902591661955
Ar 0.08502361023179683 1.650489424853091 0.2403474141588211
Ar -2.391356198609048 -0.6167022487651391 -0.8148987897862011
Ar -0.07702542479988876 -1.453649253172223 1.74985572976999
Ar 1.338937853382757 0.7205736521766476 0.5861645010356504
Ar -1.654092328758511 -1.149603803873493 -1.457843276096099
Ar -0.4905686477240558 0.05662344865319768 -0.2430741117221561
Ar 1.63585357058806 -0.246923665218386 1.148317466247783
Ar -3.076867517629842 0.3765024032787643 1.039986222751167
75
algorithm=ssw_clip size=75 seed=0 index=5 energy=-373.8357839278684 entry_id=5 visits=2
Ar 0.9397656216564422 1.172411404628099 0.8932419298978382
Ar -0.01022987832439025 -0.3310800615768487 0.6583600165066817
Ar 0.5581594288496582 1.199119206422838 1.9534305761552
Ar -0.9365025997974911 1.264989714400793 0.8323418132476194
Ar -1.466441253575355 1.652117800857322 -0.01875811439574419
Ar -2.443976923749915 -0.7093917899511938 1.9365991859555
Ar 1.704683728553416 -0.6251383847526789 1.75580947364629
Ar 0.8426000344918287 0.2293138893523025 0.36243203041766
Ar -2.37392765817789 0.1865036563629202 1.279744768720228
Ar 0.3012730311941496 1.988111196633539 -0.800509735657283
Ar -0.400213586613146 0.786360940632055 1.631033722997454
Ar -0.2543394681845325 -1.258574874618294 0.180139262086971
Ar 0.5184134297714955 0.2565463412508799 1.388827778072279
Ar 0.6116989722724094 1.113604469160751 -0.2069548260192288
Ar 0.4025570517505696 -1.666088566247562 -0.6123559214319971
Ar 0.727436098293783 1.070106649015443 -1.303915162911425
Ar -0.7230034368194709 -1.756993536340826 -0.6614882004030672
Ar -1.886515303389768 1.688207673452538 1.071431455566051
Ar -1.529126438594269 -0.6901884215875229 2.647338522769418
Ar -1.795604501629242 0.7090528172829543 0.5259344067070725
Ar -1.392263081085384 -1.357276978652172 0.1339799963599828
Ar -2.307392286927982 -0.8458039822207085 -0.2326160432292491
Ar 0.6568132544659916 -0.713499007499857 -0.1248704507129561
Ar -1.554993606625392 1.218326493345094 2.566611692147618
Ar 1.676507950138763 0.8117139477678246 0.06282114993894253
Ar -1.774161653643639 0.1151425194431714 -0.4083264469575438
Ar -1.358948446309276 -0.8561061820691019 -0.8723632536388231
Ar -0.79993594860721 -1.919628231423752 0.9299791549216718
Ar -0.2275755556742421 -0.7764248286239047 -0.8073287102076894
Ar -1.234997410620946 1.64680158154616 -1.858827169836856
Ar -2.779326779356088 1.090610061058902 0.7672144228016623
Ar 0.165571726080859 0.1230895655107242 -1.386085835191058
Ar -0.1185815058322937 -2.32549438907321 0.1342287823994729
Ar -1.475619719430127 -0.3215680854282453 1.638501049431765
Ar -0.9409744459805324 2.321388957006444 0.7570202986408544
Ar -0.03528393108708338 0.7656842958254658 0.5989386306675106
Ar -0.9726358109227177 1.749967696720861 1.780548898127786
Ar -0.1301592930415107 1.65641820142823 -1.760032257548674
Ar 1.084873806236687 -1.560829562385343 1.55549047838147
Ar 0.1601665295675963 0.2860590222012832 2.449732132629462
Ar 0.975778473829168 -0.6638482460369406 0.9440161255251462
Ar -0.8968199588427984 0.7037136923255064 -0.07231979891648888
Ar -3.129784645748947 0.2078866439673016 2.051676364579993
Ar -1.498312260501868 0.7670035483013896 1.58896000364653
Ar -0.8858702207005642 -0.8613439599590574 0.9371078218879451
Ar 0.01912100264814557 0.1649502434102565 -0.3134938478760013
Ar 0.7270570737750939 -1.640224292082855 0.4763872522965712
Ar 0.05988872953130527 -1.250106450704864 1.267912488778933
Ar -0.8227258206955606 1.978355705932433 -0.8826230847072224
Ar 1.60507642642204 0.2751785211923864 1.108682472980634
Ar -2.071796822799336 0.2458469355309738 2.372762564879237
Ar -0.9042646784582118 -1.272407608130755 1.919895382679007
Ar -0.3245924542653773 1.664041544986756 0.0466727455907584
Ar -0.9641106124794016 0.271046492425469 2.424411104339864
Ar 1.247744306598489 0.3098170251060652 2.177180033487714
Ar 0.7925032605485123 -0.773670660560581 -1.208032190022365
Ar -0.6388567360909447 -0.5452603888768889 -1.803316860756345
Ar -2.686172366710407 0.1252638658904035 0.2122424095690088
Ar -0.8552182370144487 0.1086681475224396 -0.9767263584610156
Ar -1.416732053749475 1.039531554667493 -0.9600097090752453
Ar -0.9094384234187078 0.199938284566584 0.8866930921946939
Ar -0.01299569237992753 1.724684571711596 1.147409820412363
Ar -0.3736576382483435 -0.312323594071684 1.704793493686895
Ar -2.357364435665539 1.063058318098788 -0.324441401301472
Ar -0.4147549916470359 1.240839323675126 2.605104664667047
Ar -0.6717337574869032 0.6881220047412291 -1.860107463756913
Ar -1.770011471837059 -0.3814608245512194 0.5787216554051819
Ar -0.2783209776130758 1.03545107516741 -0.8794945595585842
Ar -2.734671101420333 -0.7847291397955345 0.8551341631379138
Ar 0.6272941280341963 -0.6370435099919305 2.006176627131161
Ar 1.05580426168783 0.185998650886445 -0.6932912229900005
Ar -1.814468985095448 -1.308941387985917 1.213620463244461
Ar -0.8722991924132909 -0.3869454623929079 -0.02282225647034114
Ar 1.697517061185162 -0.3592089668229934 0.1257218123186491
Ar -2.481870060327027 1.137740511732729 1.85289855737005
75
algorithm=ssw_clip size=75 seed=0 index=6 energy=-366.7430789257619 entry_id=6 visits=2
Ar 0.3983251961616647 1.490479410299383 0.6489540546059238
Ar -0.4217860642657688 -0.1038608144370502 0.7858743519821916
Ar -0.6160581604567834 1.958160935965238 0.5274908754868129
Ar -0.4115262959451132 0.7189544273827709 -0.8644656597098818
Ar 0.1651059593590543 0.2804531370817985 -1.659870965497402
Ar -1.21208246412525 -2.482905120279397 0.9869734961774466
Ar -0.5509182528996206 1.020798296484481 2.507611558827091
Ar 0.4289244975903571 0.4851892246242848 1.055688136654843
Ar -1.862150536319955 -0.3862082178271663 -1.258979702277352
Ar 1.748666850012969 0.8362888460661529 -0.6387203021666128
Ar -0.9668657742950683 1.075620225272089 -0.02027716319454462
Ar -0.4802943193294522 -1.127154116651016 1.095309837205878
Ar -0.5333084516144483 0.9560978013550013 0.9683869406845325
Ar 1.10057246768021 0.6902915760004062 0.2403722327680306
Ar 0.9670477116006753 -2.196924002619359 1.062513679837264
Ar 2.019366943334676 0.07911050946542834 0.15806340739098
Ar 0.4827617640105948 -2.778741380570561 0.2459871621753901
Ar -0.8705998763954179 0.7488266824438674 -1.822750547954038
Ar -1.547039018783144 -1.450572921376825 1.20681966113381
Ar -0.7812356192917862 -0.2158578264281541 -1.235552107531588
Ar -0.9559156058968217 -1.688022232839799 0.2841241123745043
Ar -0.9322788885454094 -1.980720325592702 -0.7711719566543607
Ar 0.3928341991997065 -0.5279762194654215 1.405801180938357
Ar -2.092762783553926 1.434893181492281 -1.020802139032893
Ar 1.279000400610961 1.072642954987433 1.296451024615871
Ar -0.2300359922937555 -1.150873746370231 -1.01777522582698
Ar 0.01841901206955218 -1.891751983105691 -0.1923687051279208
Ar -0.1576162678739881 -2.155042750659986 0.8921884092636581
Ar 0.4903008556409689 -1.318540505704563 0.6343617905754665
Ar -2.837824557162774 4.993186976080074 3.626122164229146
Ar -1.265874038077535 -0.2266369885983731 -2.198359045807365
Ar 1.475906196569611 -0.8758429225650741 0.2880980481976245
Ar 0.3276609247504029 -1.574910863801933 1.713255492065729
Ar -1.93830295412191 -0.1693262965586004 -0.1747418790849611
Ar 0.04130723075775063 1.416152425278609 -1.525070616923677
Ar 0.01713281275002945 0.6199469732489169 0.09234146003049087
Ar -0.9977427240829705 1.590959079538256 -1.029441984871483
Ar 2.184203948887627 -0.1286950231439213 -0.9572071962307602
Ar 0.8015103016697165 0.3023997192349376 2.037003661728283
Ar -1.535363630383208 1.437887046281845 0.8641572459332053