115
Lattice="13.75323 0.0 0.0 0.0 13.75323 0.0 0.0 0.0 23.89" Properties=species:S:1:pos:R:3 entry_id=2 rank=5 energy=-569.4309692382812 parent_id=1 pbc="T T F"
Pd       0.00000000       0.00000000      10.00000000
Pd       2.75064538       0.00000000      10.00000000
Pd       5.50129076       0.00000000      10.00000000
Pd       8.25193614       0.00000000      10.00000000
Pd      11.00258152       0.00000000      10.00000000
Pd       0.00000000       2.75064538      10.00000000
Pd       2.75064538       2.75064538      10.00000000
Pd       5.50129076       2.75064538      10.00000000
Pd       8.25193614       2.75064538      10.00000000
Pd      11.00258152       2.75064538      10.00000000
Pd       0.00000000       5.50129076      10.00000000
Pd       2.75064538       5.50129076      10.00000000
Pd       5.50129076       5.50129076      10.00000000
Pd       8.25193614       5.50129076      10.00000000
Pd      11.00258152       5.50129076      10.00000000
Pd       0.00000000       8.25193614      10.00000000
Pd       2.75064538       8.25193614      10.00000000
Pd       5.50129076       8.25193614      10.00000000
Pd       8.25193614       8.25193614      10.00000000
Pd      11.00258152       8.25193614      10.00000000
Pd       0.00000000      11.00258152      10.00000000
Pd       2.75064538      11.00258152      10.00000000
Pd       5.50129076      11.00258152      10.00000000
Pd       8.25193614      11.00258152      10.00000000
Pd      11.00258152      11.00258152      10.00000000
Pd       1.35313996       1.34836214      12.00450829
Pd       4.10627533       1.36477754      11.94584119
Pd       6.84732832       1.35928258      12.01001703
Pd       9.57512057       1.39592898      11.89594876
Pd      12.38684272       1.37174114      11.92044161
Pd       1.37208896       4.13748880      11.93743981
Pd       4.11947980       4.14466146      11.97828041
Pd       6.83666974       4.11731869      12.02947077
Pd       9.56728621       4.13975942      11.94281254
Pd      12.36578195       4.13265160      11.93417299
Pd       1.37110082       6.89256210      11.94010419
Pd       4.13935064       6.87026939      11.96482277
Pd       6.87097415       6.85831372      11.95140951
Pd       9.64205429       6.82915781      11.94515418
Pd      12.39111484       6.85622887      11.94896407
Pd       1.35797441       9.69134938      12.02663968
Pd       4.11777592       9.66324146      11.95099537
Pd       6.89476706       9.64088005      11.95142944
Pd       9.64982872       9.59779534      11.89439304
Pd      12.42487279       9.60955999      11.94161946
Pd       1.39242284      12.40751915      12.06586864
Pd       4.11742119      12.38648529      11.98614888
Pd       6.86816975      12.39901143      11.97280504
Pd       9.63028672      12.36702810      11.91406436
Pd      12.46258118      12.33365658      11.97784546
Pd      13.68507220       0.04741462      14.16140849
Pd       2.74985379       0.10388163      14.07928316
Pd       5.56495437      13.59036212      14.06669181
Pd       8.33196179       0.02503650      14.02782150
Pd      11.02197171      13.74870364      13.74415811
Pd      13.71221047       2.75570850      13.88347843
Pd       2.65622536       2.85723934      13.94809574
Pd       5.40554763       2.63979615      13.98647910
Pd       8.15579584       2.83814854      13.96539222
Pd      10.98675455       2.64327145      13.94767303
Pd       0.01868766       5.53904327      13.92739142
Pd       2.70481698       5.58632741      13.96368014
Pd       5.41671596       5.51690774      14.11719087
Pd       8.32970985       5.54598635      14.04014526
Pd      11.07201060       5.46113135      14.05279123
Pd      13.74470585       8.30730650      13.98445575
Pd       2.67103884       8.31183194      13.99499138
Pd       5.34279593       8.22442655      13.92040040
Pd       8.35739765       8.32348823      13.94674446
Pd      11.03102758       8.17890796      13.92790800
Pd      13.65730877      11.01061194      14.42488492
Pd       2.84845373      11.08266154      14.02716236
Pd       5.59919604      10.92388954      13.90871900
Pd       8.33788810      11.02615242      14.05381282
Pd      11.04260180      10.84801096      13.81539002
Pd      12.19632513       6.64387301      16.50661867
Pd       9.24791854       9.61491987      17.25475013
Pd       2.22719155      12.84754785      16.60665368
Pd       1.18119177       6.53712767      16.31573543
Pd      12.08990819       9.39274462      16.26986429
Pd       7.45865579       1.71726079      18.04910108
Pd       5.18772628       0.63834175      16.84100490
Pd       6.79187345      10.31499479      16.31269158
Pd       4.63370383      11.84330095      16.14596406
Pd      10.96233660      12.39242564      15.89471096
Pd      13.53664884       4.13990554      16.25389463
Pd       3.24053411       4.24899302      16.29370527
Pd      10.03856662       3.84320987      16.67527653
Pd       2.90747865       9.70459560      16.42976176
Pd       7.12960424       7.19152339      16.82409902
Pd       7.50255669      12.88229057      16.89554394
Pd       9.63609401       7.10392709      15.97137849
Pd       6.76753831       3.82238915      16.62900038
Pd       1.21538582       1.65628351      15.91738676
Pd       3.92812796       6.93514644      16.00442329
O        8.35390628       3.47642730      17.72473776
O       10.86005059      10.67746698      17.05457076
O       12.93171818      12.55379321      15.62959963
O        9.98826805       1.93292136      15.88098533
O        8.67639939       1.58357241      15.53586830
O        3.97953054       8.39066966      17.26060427
O        4.35604593       1.17701447      15.13033270
O        2.47682516       1.79009188      17.45971487
O        8.93036286      12.41396079      15.59418499
O        1.64322232      11.12175634      15.75684866
O        3.13222400       0.56874346      17.63428719
O        1.50921588       4.71354671      17.03849177
O        6.98251226       5.61748921      15.62678591
O        7.49345425       8.90105012      17.74121340
O        5.06284941       3.91745817      15.60327722
O       11.68382334       3.89130330      15.52208782
O       10.52055592       5.74040942      17.18191006
O       13.59243884       8.04936936      16.02485619
O        6.40979643       0.05200783      18.27846345
O        6.79410143       8.51176312      15.26852822
