115
Lattice="13.75323 0.0 0.0 0.0 13.75323 0.0 0.0 0.0 23.89" Properties=species:S:1:pos:R:3 entry_id=4 rank=2 energy=-569.4345703125 parent_id=3 pbc="T T F"
Pd       0.00000000       0.00000000      10.00000000
Pd       2.75064538       0.00000000      10.00000000
Pd       5.50129076       0.00000000      10.00000000
Pd       8.25193614       0.00000000      10.00000000
Pd      11.00258152       0.00000000      10.00000000
Pd       0.00000000       2.75064538      10.00000000
Pd       2.75064538       2.75064538      10.00000000
Pd       5.50129076       2.75064538      10.00000000
Pd       8.25193614       2.75064538      10.00000000
Pd      11.00258152       2.75064538      10.00000000
Pd       0.00000000       5.50129076      10.00000000
Pd       2.75064538       5.50129076      10.00000000
Pd       5.50129076       5.50129076      10.00000000
Pd       8.25193614       5.50129076      10.00000000
Pd      11.00258152       5.50129076      10.00000000
Pd       0.00000000       8.25193614      10.00000000
Pd       2.75064538       8.25193614      10.00000000
Pd       5.50129076       8.25193614      10.00000000
Pd       8.25193614       8.25193614      10.00000000
Pd      11.00258152       8.25193614      10.00000000
Pd       0.00000000      11.00258152      10.00000000
Pd       2.75064538      11.00258152      10.00000000
Pd       5.50129076      11.00258152      10.00000000
Pd       8.25193614      11.00258152      10.00000000
Pd      11.00258152      11.00258152      10.00000000
Pd       1.35482064       1.34462441      12.00293240
Pd       4.10616360       1.36677587      11.94531121
Pd       6.84693818       1.35936297      12.01014991
Pd       9.57512057       1.39592898      11.89594876
Pd      12.38684272       1.37174114      11.92044161
Pd       1.37111848       4.13645211      11.94077341
Pd       4.11944420       4.14544224      11.97885423
Pd       6.83672251       4.11891342      12.02777030
Pd       9.56728621       4.13975942      11.94281254
Pd      12.36578195       4.13265160      11.93417299
Pd       1.37110082       6.89256210      11.94010419
Pd       4.13935064       6.87026939      11.96482277
Pd       6.87097415       6.85831372      11.95140951
Pd       9.64205429       6.82915781      11.94515418
Pd      12.39111484       6.85622887      11.94896407
Pd       1.35735470       9.68582744      12.02230329
Pd       4.11777592       9.66324146      11.95099537
Pd       6.89476706       9.64088005      11.95142944
Pd       9.64982872       9.59779534      11.89439304
Pd      12.42487279       9.60955999      11.94161946
Pd       1.39147006      12.39928156      12.06440989
Pd       4.11858845      12.38885538      11.98544091
Pd       6.86816975      12.39901143      11.97280504
Pd       9.63028672      12.36702810      11.91406436
Pd      12.46071597      12.34254135      11.97027528
Pd      13.68081351       0.03510536      14.15227432
Pd       2.74776114       0.09800859      14.07650561
Pd       5.56090674      13.59986925      14.06325797
Pd       8.32827089       0.02739536      14.03427034
Pd      11.01704775       0.00685696      13.74786264
Pd      13.71266542       2.74240326      13.88512910
Pd       2.65544846       2.84964544      13.95157141
Pd       5.40916635       2.64339848      13.98730001
Pd       8.15475601       2.84287243      13.96220529
Pd      10.98564798       2.65266880      13.94555151
Pd       0.01655589       5.52461320      13.93506707
Pd       2.70241708       5.58033398      13.96312630
Pd       5.41772445       5.52510461      14.11358004
Pd       8.32282316       5.54906244      14.04681195
Pd      11.06534530       5.47367629      14.04586608
Pd      13.74562960       8.29232730      13.98387309
Pd       2.66966415       8.31098763      13.98165805
Pd       5.33944839       8.22756921      13.93336984
Pd       8.35315600       8.32306506      13.94111696
Pd      11.03343232       8.19659498      13.92567648
Pd      13.68038674      10.99972349      14.41729522
Pd       2.85970495      11.08235534      14.01922905
Pd       5.61156447      10.92640557      13.91168344
Pd       8.35181763      11.02712243      14.05689405
Pd      11.05612119      10.86548386      13.80646605
Pd      12.21045215       6.63227768      16.51008853
Pd       9.30799880       9.62172514      17.23215703
Pd       2.26046676      12.83888975      16.60949974
Pd       1.17155960       6.45565054      16.35386279
Pd      12.15847562       9.37380185      16.26186436
Pd       7.46139678       1.74638360      18.04798784
Pd       5.19883076       0.66657922      16.83442882
Pd       6.82834214      10.32304702      16.32033123
Pd       4.68285017      11.86756323      16.15169777
Pd      10.98192117      12.39682303      15.89275792
Pd      13.51818605       4.09257120      16.26081467
Pd       3.23024899       4.22713637      16.29817248
Pd      10.02931823       3.85648253      16.67442406
Pd       2.98696257       9.72420751      16.40574583
Pd       7.16662058       7.21063888      16.83177701
Pd       7.51877897      12.90074286      16.89479563
Pd       9.65669515       7.11089092      15.95822092
Pd       6.75162747       3.84084856      16.62744783
Pd       1.20676128       1.61976175      15.91871504
Pd       3.88299256       6.93185842      15.99785459
O        8.34191723       3.50940482      17.72279982
O       10.92865684      10.66952974      17.02980086
O       12.95029815      12.53849880      15.62542268
O        9.98085810       1.94217105      15.88332022
O        8.67043487       1.59416908      15.53612106
O        4.09110378       8.41540963      17.20545009
O        4.34642447       1.19091375      15.12872233
O        2.47496602       1.78023707      17.45538661
O        8.94717188      12.41909936      15.59860295
O        1.67790519      11.11570193      15.76185878
O        3.14694172       0.56997655      17.63781970
O        1.49345653       4.63123636      17.06586273
O        6.97931604       5.63729989      15.63792941
O        7.55529848       8.92000592      17.73892336
O        5.05373945       3.93659290      15.59269984
O       11.66617196       3.89963108      15.51749717
O       10.52227648       5.75027568      17.18261456
O       13.64448422       8.00608411      16.02536577
O        6.42239773       0.07590012      18.27057033
O        6.80051673       8.51801856      15.27486516
