115
Lattice="13.75323 0.0 0.0 0.0 13.75323 0.0 0.0 0.0 23.89" Properties=species:S:1:pos:R:3 entry_id=1 rank=6 energy=-569.2710571289062 parent_id=0 pbc="T T F"
Pd       0.00000000       0.00000000      10.00000000
Pd       2.75064538       0.00000000      10.00000000
Pd       5.50129076       0.00000000      10.00000000
Pd       8.25193614       0.00000000      10.00000000
Pd      11.00258152       0.00000000      10.00000000
Pd       0.00000000       2.75064538      10.00000000
Pd       2.75064538       2.75064538      10.00000000
Pd       5.50129076       2.75064538      10.00000000
Pd       8.25193614       2.75064538      10.00000000
Pd      11.00258152       2.75064538      10.00000000
Pd       0.00000000       5.50129076      10.00000000
Pd       2.75064538       5.50129076      10.00000000
Pd       5.50129076       5.50129076      10.00000000
Pd       8.25193614       5.50129076      10.00000000
Pd      11.00258152       5.50129076      10.00000000
Pd       0.00000000       8.25193614      10.00000000
Pd       2.75064538       8.25193614      10.00000000
Pd       5.50129076       8.25193614      10.00000000
Pd       8.25193614       8.25193614      10.00000000
Pd      11.00258152       8.25193614      10.00000000
Pd       0.00000000      11.00258152      10.00000000
Pd       2.75064538      11.00258152      10.00000000
Pd       5.50129076      11.00258152      10.00000000
Pd       8.25193614      11.00258152      10.00000000
Pd      11.00258152      11.00258152      10.00000000
Pd       1.35806852       1.35601655      12.00436476
Pd       4.10647772       1.37396104      11.94592735
Pd       6.85324912       1.35602640      12.01029179
Pd       9.57512057       1.39592898      11.89594876
Pd      12.38684272       1.37174114      11.92044161
Pd       1.37374098       4.14411159      11.95416452
Pd       4.11548580       4.15065917      11.98119414
Pd       6.84072024       4.10940162      12.02960897
Pd       9.56728621       4.13975942      11.94281254
Pd      12.36578195       4.13265160      11.93417299
Pd       1.37110082       6.89256210      11.94010419
Pd       4.13935064       6.87026939      11.96482277
Pd       6.87097415       6.85831372      11.95140951
Pd       9.64205429       6.82915781      11.94515418
Pd      12.39111484       6.85622887      11.94896407
Pd       1.35901395       9.68533228      12.01786410
Pd       4.11777592       9.66324146      11.95099537
Pd       6.89476706       9.64088005      11.95142944
Pd       9.64982872       9.59779534      11.89439304
Pd      12.42487279       9.60955999      11.94161946
Pd       1.37089006      12.40757121      12.05129658
Pd       4.10971503      12.38865346      11.97828089
Pd       6.86816975      12.39901143      11.97280504
Pd       9.63028672      12.36702810      11.91406436
Pd      12.43722658      12.35181291      11.98280249
Pd      13.66909140       0.01471023      14.15096408
Pd       2.73826572       0.10881788      14.06722525
Pd       5.53684702      13.61537468      14.04112765
Pd       8.29907943      13.71731457      14.01482975
Pd      10.99910252       0.06453149      13.78121135
Pd      13.72848607       2.73763166      13.87873098
Pd       2.66690539       2.87840284      13.98129235
Pd       5.43441655       2.64488163      13.97361856
Pd       8.21541867       2.81112231      13.97340094
Pd      11.03310226       2.77069087      13.98477404
Pd      13.74737641       5.50312406      13.95999708
Pd       2.71747768       5.62036293      13.98276815
Pd       5.43563895       5.51432782      14.11294442
Pd       8.35613613       5.51585320      14.01564628
Pd      11.03963909       5.48523803      13.97524426
Pd       0.02169381       8.29138923      13.97287968
Pd       2.69847634       8.33308302      13.99060865
Pd       5.38301261       8.21503870      13.88881182
Pd       8.40487326       8.28832607      13.95145277
Pd      11.06110013       8.19941934      13.93187240
Pd      13.63287857      10.97857571      14.45662548
Pd       2.81075172      11.10956953      13.99870178
Pd       5.58573376      10.91876397      13.92539815
Pd       8.30282668      10.96378693      14.08234307
Pd      11.02821351      10.86666777      13.79648214
Pd      12.28493895       6.49844328      16.37489302
Pd       9.13277916       9.60872860      17.16776586
Pd       2.20725574      12.82589317      16.60154215
Pd       1.26484083       6.61213157      16.24854197
Pd      12.04934793       9.34029377      16.27905554
Pd       7.47870406       1.64840459      18.01512749
Pd       5.16908675       0.71797078      16.83072477
Pd       6.36388773      10.03505436      16.50663811
Pd       4.66002129      11.97561621      16.10826770
Pd      10.89605167      12.37268715      15.88445125
Pd      13.68896450       4.04532953      16.31945573
Pd       3.32576347       4.34419783      16.29831423
Pd      10.17081055       3.60562472      16.65740779
Pd       3.07900542       9.79981700      16.35541256
Pd       7.20060486       7.07535981      16.81558072
Pd       7.39091299      12.77184599      16.88479396
Pd       9.71843126       7.02892177      15.98268343
Pd       6.82585705       3.75565428      16.58742878
Pd       1.20950810       1.60699434      15.91374594
Pd       4.02204046       7.06880921      16.03206480
O        8.42025477       3.37632978      17.64986506
O       10.77935115      10.63101608      16.98939256
O       12.87408252      12.53792805      15.61538603
O        9.95845472       1.67817006      15.92868407
O        8.64408376       1.46802786      15.51131648
O        4.54944021       8.74284241      16.99845058
O        4.32112731       1.23561062      15.11802959
O        2.43291390       1.75595930      17.47663000
O        8.85064661      12.32833884      15.60226638
O        1.63279992      11.08380432      15.77539345
O        3.10932761       0.54939887      17.63293205
O        1.60721017       4.82391560      17.03843726
O        7.05081883       5.54237852      15.60001170
O        7.47342372       8.77441933      17.76575212
O        5.11333759       3.92729698      15.58696080
O       11.94568819       3.30614921      15.80716417
O       10.64985661       5.53491882      17.03096425
O       13.57557025       8.04640390      16.01241633
O        6.35802938       0.03422296      18.25517829
O        6.85123754       8.38749898      15.23601025
