115
Lattice="13.75323 0.0 0.0 0.0 13.75323 0.0 0.0 0.0 23.89" Properties=species:S:1:pos:R:3 entry_id=5 rank=3 energy=-569.4331665039062 parent_id=4 pbc="T T F"
Pd       0.00000000       0.00000000      10.00000000
Pd       2.75064538       0.00000000      10.00000000
Pd       5.50129076       0.00000000      10.00000000
Pd       8.25193614       0.00000000      10.00000000
Pd      11.00258152       0.00000000      10.00000000
Pd       0.00000000       2.75064538      10.00000000
Pd       2.75064538       2.75064538      10.00000000
Pd       5.50129076       2.75064538      10.00000000
Pd       8.25193614       2.75064538      10.00000000
Pd      11.00258152       2.75064538      10.00000000
Pd       0.00000000       5.50129076      10.00000000
Pd       2.75064538       5.50129076      10.00000000
Pd       5.50129076       5.50129076      10.00000000
Pd       8.25193614       5.50129076      10.00000000
Pd      11.00258152       5.50129076      10.00000000
Pd       0.00000000       8.25193614      10.00000000
Pd       2.75064538       8.25193614      10.00000000
Pd       5.50129076       8.25193614      10.00000000
Pd       8.25193614       8.25193614      10.00000000
Pd      11.00258152       8.25193614      10.00000000
Pd       0.00000000      11.00258152      10.00000000
Pd       2.75064538      11.00258152      10.00000000
Pd       5.50129076      11.00258152      10.00000000
Pd       8.25193614      11.00258152      10.00000000
Pd      11.00258152      11.00258152      10.00000000
Pd       1.35449802       1.34493663      12.00473229
Pd       4.10686163       1.36699394      11.94799406
Pd       6.84603370       1.35560749      12.01220507
Pd       9.57512057       1.39592898      11.89594876
Pd      12.38684272       1.37174114      11.92044161
Pd       1.37409945       4.13971175      11.93722641
Pd       4.12308258       4.14726743      11.97677896
Pd       6.83974507       4.11489182      12.02576147
Pd       9.56728621       4.13975942      11.94281254
Pd      12.36578195       4.13265160      11.93417299
Pd       1.37110082       6.89256210      11.94010419
Pd       4.13935064       6.87026939      11.96482277
Pd       6.87097415       6.85831372      11.95140951
Pd       9.64205429       6.82915781      11.94515418
Pd      12.39111484       6.85622887      11.94896407
Pd       1.36076749       9.68938072      12.02717981
Pd       4.11777592       9.66324146      11.95099537
Pd       6.89476706       9.64088005      11.95142944
Pd       9.64982872       9.59779534      11.89439304
Pd      12.42487279       9.60955999      11.94161946
Pd       1.39137091      12.40267736      12.07077749
Pd       4.11730801      12.38999158      11.98966497
Pd       6.86816975      12.39901143      11.97280504
Pd       9.63028672      12.36702810      11.91406436
Pd      12.46460381      12.34094560      11.97464387
Pd      13.68745907       0.04901615      14.16711494
Pd       2.75540039       0.10559208      14.08349642
Pd       5.57021537      13.59785067      14.07122247
Pd       8.33808953       0.02224301      14.03545028
Pd      11.02436090       0.00249538      13.74970128
Pd      13.71731676       2.75573946      13.88251510
Pd       2.66069509       2.85916191      13.94528613
Pd       5.41147267       2.64355223      13.98917925
Pd       8.16113211       2.83164235      13.95810324
Pd      10.99226974       2.65217190      13.94789368
Pd       0.02948112       5.54137779      13.92553053
Pd       2.71474527       5.58891679      13.96412301
Pd       5.42938326       5.51683722      14.10811564
Pd       8.34032959       5.54342087      14.04199000
Pd      11.08323155       5.47738603      14.05193931
Pd      13.75015955       8.31197559      13.98554495
Pd       2.67575767       8.31273452      13.99985677
Pd       5.35146313       8.22455566      13.91988676
Pd       8.36820284       8.32125026      13.94071590
Pd      11.04264113       8.19577794      13.93196475
Pd      13.67901533      11.01444499      14.44229380
Pd       2.85789953      11.08554148      14.02677143
Pd       5.60825933      10.92528053      13.91103099
Pd       8.34975523      11.02723138      14.05585844
Pd      11.06000642      10.86510900      13.81176502
Pd      12.22095446       6.66166588      16.51108715
Pd       9.27476882       9.62297997      17.25207308
Pd       2.25402840      12.85778983      16.61023408
Pd       1.19929053       6.53728409      16.31490347
Pd      12.12463176       9.41029928      16.28098271
Pd       7.47589797       1.73537125      18.05030252
Pd       5.20038326       0.67048098      16.84750413
Pd       6.80932004      10.31653053      16.31282331
Pd       4.67306980      11.87742796      16.14754468
Pd      10.97313184      12.39858496      15.90108857
Pd      13.53970274       4.14739648      16.25023045
Pd       3.24628153       4.25277914      16.29418154
Pd      10.05076934       3.86189548      16.67861722
Pd       2.98293582       9.72469083      16.41644273
Pd       7.15275268       7.19544376      16.81837279
Pd       7.50735808      12.89322079      16.90198329
Pd       9.65821869       7.11229536      15.96833043
Pd       6.77319673       3.83003472      16.62723735
Pd       1.21711190       1.66131072      15.91871047
Pd       3.94459404       6.93889389      15.99922188
O        8.36494313       3.49679642      17.72473194
O       10.88598320      10.68801928      17.06483659
O       12.94327934      12.55562344      15.63927543
O       10.00378908       1.94890695      15.88018330
O        8.69322250       1.59471780      15.53711007
O        4.09072346       8.42063667      17.21844459
O        4.36150898       1.19419027      15.13589453
O        2.47822822       1.80490994      17.46068188
O        8.93839967      12.41494651      15.60520176
O        1.67925147      11.12476466      15.77341697
O        3.14231683       0.58952067      17.63847998
O        1.51381599       4.71191677      17.03954316
O        6.99761367       5.62057440      15.62698788
O        7.52071131       8.90576821      17.73373246
O        5.07011279       3.92961383      15.60036481
O       11.68603613       3.91538684      15.51381207
O       10.54337315       5.75851399      17.18619301
O       13.62351681       8.06376360      16.02913225
O        6.42169658       0.07389426      18.28222212
O        6.81110007       8.51410257      15.26168406
