115
Lattice="13.75323 0.0 0.0 0.0 13.75323 0.0 0.0 0.0 23.89" Properties=species:S:1:pos:R:3 entry_id=0 rank=7 energy=-568.3948974609375 parent_id=-1 pbc="T T F"
Pd       0.00000000       0.00000000      10.00000000
Pd       2.75064538       0.00000000      10.00000000
Pd       5.50129076       0.00000000      10.00000000
Pd       8.25193614       0.00000000      10.00000000
Pd      11.00258152       0.00000000      10.00000000
Pd       0.00000000       2.75064538      10.00000000
Pd       2.75064538       2.75064538      10.00000000
Pd       5.50129076       2.75064538      10.00000000
Pd       8.25193614       2.75064538      10.00000000
Pd      11.00258152       2.75064538      10.00000000
Pd       0.00000000       5.50129076      10.00000000
Pd       2.75064538       5.50129076      10.00000000
Pd       5.50129076       5.50129076      10.00000000
Pd       8.25193614       5.50129076      10.00000000
Pd      11.00258152       5.50129076      10.00000000
Pd       0.00000000       8.25193614      10.00000000
Pd       2.75064538       8.25193614      10.00000000
Pd       5.50129076       8.25193614      10.00000000
Pd       8.25193614       8.25193614      10.00000000
Pd      11.00258152       8.25193614      10.00000000
Pd       0.00000000      11.00258152      10.00000000
Pd       2.75064538      11.00258152      10.00000000
Pd       5.50129076      11.00258152      10.00000000
Pd       8.25193614      11.00258152      10.00000000
Pd      11.00258152      11.00258152      10.00000000
Pd       1.34625652       1.38085180      12.08139847
Pd       4.09710580       1.39051213      12.02478112
Pd       6.82981563       1.36953613      12.02875332
Pd       9.57512057       1.39592898      11.89594876
Pd      12.38684272       1.37174114      11.92044161
Pd       1.36477034       4.11653882      11.98604676
Pd       4.10062128       4.12335542      12.03935223
Pd       6.80964785       4.10127337      12.01946230
Pd       9.56728621       4.13975942      11.94281254
Pd      12.36578195       4.13265160      11.93417299
Pd       1.37110082       6.89256210      11.94010419
Pd       4.13935064       6.87026939      11.96482277
Pd       6.87097415       6.85831372      11.95140951
Pd       9.64205429       6.82915781      11.94515418
Pd      12.39111484       6.85622887      11.94896407
Pd       1.35620292       9.70034309      11.99803453
Pd       4.11777592       9.66324146      11.95099537
Pd       6.89476706       9.64088005      11.95142944
Pd       9.64982872       9.59779534      11.89439304
Pd      12.42487279       9.60955999      11.94161946
Pd       1.38044565      12.43193461      12.05375802
Pd       4.10022636      12.39283105      12.00410004
Pd       6.86816975      12.39901143      11.97280504
Pd       9.63028672      12.36702810      11.91406436
Pd      12.44377043      12.34106277      11.97883739
Pd      13.68382701      13.72505702      14.13496053
Pd       2.74105318       0.13687537      14.18797792
Pd       5.57275123      13.58411357      14.03506406
Pd       8.32209749       0.10872112      14.02896192
Pd      11.00945028       0.06543695      13.76260779
Pd      13.56162122       2.74994863      13.99054937
Pd       2.60935694       2.89244872      14.11906199
Pd       5.38705577       2.66351014      14.17467830
Pd       8.19636531       2.74737472      13.98464084
Pd      10.87235108       2.71376535      13.87794059
Pd       0.02066497       5.52364359      13.94651324
Pd       2.72281350       5.58683937      14.00780950
Pd       5.45644674       5.48204933      14.06962646
Pd       8.27767392       5.48391884      14.03245814
Pd      11.00184701       5.39664414      13.97231220
Pd       0.04971295       8.32457013      13.97807860
Pd       2.75359013       8.29349949      13.88782245
Pd       5.49569386       8.26292869      13.94876896
Pd       8.40018379       8.22066728      13.82456355
Pd      11.08213597       8.19515323      13.93715161
Pd      13.58924179      10.96819039      14.50069487
Pd       2.74684185      11.08182162      14.01332514
Pd       5.55691019      10.90584423      13.95548938
Pd       8.34039016      11.01502815      13.92443573
Pd      11.03613893      10.88288668      13.82899728
Pd      12.43758931       6.59286267      16.10456081
Pd       8.74022820       9.62200525      16.23413583
Pd       2.03062990      12.72895339      16.64121765
Pd       1.41923883       7.01585268      16.25542223
Pd      11.87894191       9.39103412      16.30172385
Pd       8.32075220       1.37682604      16.95448678
Pd       4.98987497       0.37839260      17.18447342
Pd       5.65050113       9.65136991      17.05433535
Pd       4.39382765      11.78171530      16.13854856
Pd      10.86717226      12.42524458      15.91203166
Pd       0.84942048       4.28621834      16.30384388
Pd       3.88143097       4.40498755      16.31821677
Pd      11.15785565       3.15616705      16.54904124
Pd       2.99013933       9.51109670      16.27592525
Pd       7.25970086       7.14733476      16.87911399
Pd       6.97181733      11.97811519      16.16840041
Pd       9.73205572       6.98603304      15.97465290
Pd       7.44863830       3.72311220      16.42941906
Pd       1.07451924       1.49113936      16.04522438
Pd       4.09053669       7.08730369      15.90612432
O        9.23783788       3.11400449      17.10103159
O       10.39578345      10.53341102      16.84740217
O       12.86563320      12.54156389      15.65829033
O       11.40031437       1.29079256      17.22750749
O       10.36246143       0.44712872      17.13442588
O        5.25442205       7.65418466      17.37629214
O        4.40724608       1.01624002      15.22003373
O        2.39073500       1.64072657      17.53608596
O        8.88603080      12.46470477      15.43786578
O        1.53672237      10.98903839      15.78944425
O        3.00987971       0.38461351      17.70400511
O        2.31054947       5.38255768      17.01121352
O        6.98067759       5.58709172      15.66937915
O        7.53893405       8.89927507      17.78028211
O        5.52328608       3.35580673      16.08817212
O       13.14555432       2.98270514      16.01061716
O       11.03825790       5.17651042      16.05772770
O       13.54549850       8.25303010      16.06254825
O        6.93509216       0.02473606      17.15658283
O        7.07531712       8.65275421      15.26881814
