115
Lattice="13.75323 0.0 0.0 0.0 13.75323 0.0 0.0 0.0 23.89" Properties=species:S:1:pos:R:3 entry_id=6 rank=1 energy=-569.7055053710938 parent_id=4 pbc="T T F"
Pd       0.00000000       0.00000000      10.00000000
Pd       2.75064538       0.00000000      10.00000000
Pd       5.50129076       0.00000000      10.00000000
Pd       8.25193614       0.00000000      10.00000000
Pd      11.00258152       0.00000000      10.00000000
Pd       0.00000000       2.75064538      10.00000000
Pd       2.75064538       2.75064538      10.00000000
Pd       5.50129076       2.75064538      10.00000000
Pd       8.25193614       2.75064538      10.00000000
Pd      11.00258152       2.75064538      10.00000000
Pd       0.00000000       5.50129076      10.00000000
Pd       2.75064538       5.50129076      10.00000000
Pd       5.50129076       5.50129076      10.00000000
Pd       8.25193614       5.50129076      10.00000000
Pd      11.00258152       5.50129076      10.00000000
Pd       0.00000000       8.25193614      10.00000000
Pd       2.75064538       8.25193614      10.00000000
Pd       5.50129076       8.25193614      10.00000000
Pd       8.25193614       8.25193614      10.00000000
Pd      11.00258152       8.25193614      10.00000000
Pd       0.00000000      11.00258152      10.00000000
Pd       2.75064538      11.00258152      10.00000000
Pd       5.50129076      11.00258152      10.00000000
Pd       8.25193614      11.00258152      10.00000000
Pd      11.00258152      11.00258152      10.00000000
Pd       1.41143546       1.40309639      11.97661341
Pd       4.13612689       1.37306676      11.96809928
Pd       6.84739310       1.35448592      12.02443787
Pd       9.57512057       1.39592898      11.89594876
Pd      12.38684272       1.37174114      11.92044161
Pd       1.38513994       4.15096836      11.96519473
Pd       4.10920601       4.13041712      12.00253989
Pd       6.82684926       4.09666377      12.03704659
Pd       9.56728621       4.13975942      11.94281254
Pd      12.36578195       4.13265160      11.93417299
Pd       1.37110082       6.89256210      11.94010419
Pd       4.13935064       6.87026939      11.96482277
Pd       6.87097415       6.85831372      11.95140951
Pd       9.64205429       6.82915781      11.94515418
Pd      12.39111484       6.85622887      11.94896407
Pd       1.35726089       9.67482587      11.96853877
Pd       4.11777592       9.66324146      11.95099537
Pd       6.89476706       9.64088005      11.95142944
Pd       9.64982872       9.59779534      11.89439304
Pd      12.42487279       9.60955999      11.94161946
Pd       1.39020601      12.42204951      11.97052971
Pd       4.12339833      12.39910007      12.00256696
Pd       6.86816975      12.39901143      11.97280504
Pd       9.63028672      12.36702810      11.91406436
Pd      12.43826643      12.34111659      11.97846153
Pd       0.12267389       0.04699081      13.95590699
Pd       2.89805979       0.06704530      14.08877545
Pd       5.71741248      13.62247836      14.09607762
Pd       8.44325053      13.71417758      14.13690887
Pd      11.16292741      13.66999968      13.96979740
Pd      13.65070084       2.78412642      13.86239281
Pd       2.56317703       2.92918599      14.06498551
Pd       5.39410733       2.58944489      14.07835617
Pd       8.12600829       2.79249039      13.97651980
Pd      10.95275178       2.62513840      13.93859671
Pd       0.02991244       5.56752999      13.91761688
Pd       2.70544535       5.67537734      13.97907807
Pd       5.39201431       5.53839052      14.07180618
Pd       8.38166546       5.51490201      13.98316501
Pd      11.09907389       5.46814396      14.05487609
Pd      13.74866735       8.34282212      13.95207432
Pd       2.67644709       8.37539799      13.98555006
Pd       5.37351334       8.23987168      13.88090894
Pd       8.37728890       8.29905515      13.93373313
Pd      11.04443703       8.19538096      13.93581970
Pd      13.12747654      11.87151896      15.66726559
Pd       2.62042165      11.11865566      13.95337695
Pd       5.48024595      10.93578336      13.91459281
Pd       8.22583042      11.01995163      13.91081315
Pd      11.10469677      10.87724405      13.90189230
Pd      12.21060992       6.75550635      16.44901066
Pd       8.91711054       9.36264194      17.47180301
Pd       1.90984463      12.89734142      16.54952038
Pd       1.19316066       6.76774104      16.22824197
Pd      11.95880337       9.48513522      16.34228927
Pd       7.40427930       1.81363727      17.89148519
Pd       4.90878285       0.94510311      16.64815371
Pd       5.97727786      10.00141686      16.55498470
Pd       4.36412714      12.09597771      15.96510800
Pd       9.69189360      11.99810676      15.98390232
Pd      13.56061098       4.26370254      16.24485595
Pd       3.24724032       4.48140823      16.31036178
Pd      10.06941813       3.89031199      16.64889919
Pd       2.74952023       9.91180450      16.36415722
Pd       7.01421319       7.08062606      16.78773928
Pd       6.94429684      12.68875620      16.78998110
Pd       9.60148682       7.09781422      15.98245664
Pd       6.76911029       3.93146215      16.60244009
Pd       0.93473182       1.68203625      15.95360329
Pd       3.98873651       7.16233446      16.04348656
O        8.37192594       3.54416572      17.67776090
O       10.48205414      10.45600830      17.13961133
O       11.45059474      12.89723546      15.84784746
O       10.01075710       1.97542993      15.87777976
O        8.70434116       1.55372998      15.56877146
O        4.30899410       8.93457476      16.99714815
O        3.83286043       1.61423808      15.12639533
O        2.09962110       1.75298901      17.56491189
O        7.80528348      11.06634983      16.01233129
O        1.29044073      11.18557612      15.69059081
O        2.83642955       0.59093196      17.62028568
O        1.50191648       4.95009689      17.01142101
O        7.00291696       5.61763634      15.48191083
O        7.13654052       8.68678789      17.89021348
O        5.04474907       4.04965615      15.59825584
O       11.71772396       3.91892606      15.50503173
O       10.57402279       5.78589222      17.16131503
O       13.53598487       8.27753295      15.99236218
O        6.19365221       0.29538682      17.99226679
O        6.83492184       8.43013099      15.22609159
