115
Lattice="13.75323 0.0 0.0 0.0 13.75323 0.0 0.0 0.0 23.89" Properties=species:S:1:pos:R:3 entry_id=3 rank=4 energy=-569.43212890625 parent_id=2 pbc="T T F"
Pd       0.00000000       0.00000000      10.00000000
Pd       2.75064538       0.00000000      10.00000000
Pd       5.50129076       0.00000000      10.00000000
Pd       8.25193614       0.00000000      10.00000000
Pd      11.00258152       0.00000000      10.00000000
Pd       0.00000000       2.75064538      10.00000000
Pd       2.75064538       2.75064538      10.00000000
Pd       5.50129076       2.75064538      10.00000000
Pd       8.25193614       2.75064538      10.00000000
Pd      11.00258152       2.75064538      10.00000000
Pd       0.00000000       5.50129076      10.00000000
Pd       2.75064538       5.50129076      10.00000000
Pd       5.50129076       5.50129076      10.00000000
Pd       8.25193614       5.50129076      10.00000000
Pd      11.00258152       5.50129076      10.00000000
Pd       0.00000000       8.25193614      10.00000000
Pd       2.75064538       8.25193614      10.00000000
Pd       5.50129076       8.25193614      10.00000000
Pd       8.25193614       8.25193614      10.00000000
Pd      11.00258152       8.25193614      10.00000000
Pd       0.00000000      11.00258152      10.00000000
Pd       2.75064538      11.00258152      10.00000000
Pd       5.50129076      11.00258152      10.00000000
Pd       8.25193614      11.00258152      10.00000000
Pd      11.00258152      11.00258152      10.00000000
Pd       1.35384944       1.35096044      11.99757454
Pd       4.10383539       1.36887734      11.94692489
Pd       6.84300117       1.35775615      12.01273955
Pd       9.57512057       1.39592898      11.89594876
Pd      12.38684272       1.37174114      11.92044161
Pd       1.36753206       4.14264716      11.93733871
Pd       4.11670717       4.14898284      11.97604254
Pd       6.83398289       4.11688121      12.02751989
Pd       9.56728621       4.13975942      11.94281254
Pd      12.36578195       4.13265160      11.93417299
Pd       1.37110082       6.89256210      11.94010419
Pd       4.13935064       6.87026939      11.96482277
Pd       6.87097415       6.85831372      11.95140951
Pd       9.64205429       6.82915781      11.94515418
Pd      12.39111484       6.85622887      11.94896407
Pd       1.35631835       9.69348951      12.02868809
Pd       4.11777592       9.66324146      11.95099537
Pd       6.89476706       9.64088005      11.95142944
Pd       9.64982872       9.59779534      11.89439304
Pd      12.42487279       9.60955999      11.94161946
Pd       1.38728582      12.40767800      12.06497593
Pd       4.11606083      12.39074723      11.98645270
Pd       6.86816975      12.39901143      11.97280504
Pd       9.63028672      12.36702810      11.91406436
Pd      12.45862741      12.34042759      11.97170260
Pd      13.67344599       0.04171864      14.15940839
Pd       2.73980768       0.11004452      14.07558185
Pd       5.55568284      13.60048970      14.07082359
Pd       8.32315257       0.01788741      14.02920570
Pd      11.01387540       0.00004453      13.74827108
Pd      13.70507726       2.74944481      13.87701559
Pd       2.64756500       2.86062884      13.94410793
Pd       5.40147425       2.64957533      13.98820734
Pd       8.15256408       2.83384920      13.96070101
Pd      10.97846915       2.64410569      13.94277805
Pd       0.01038114       5.53133594      13.93817242
Pd       2.69483584       5.58970233      13.96505205
Pd       5.40897803       5.52328259      14.11624711
Pd       8.31931090       5.54053895      14.03893827
Pd      11.06095432       5.46739056      14.04493513
Pd      13.74867131       8.29829679      13.98786261
Pd       2.67021237       8.32224685      13.99143014
Pd       5.33692302       8.22656010      13.92575944
Pd       8.35525451       8.31935260      13.94162010
Pd      11.03385587       8.19017882      13.92871188
Pd      13.66047124      11.00728680      14.43466410
Pd       2.84673618      11.09425897      14.02728492
Pd       5.59703904      10.92957472      13.90794590
Pd       8.34000369      11.02047981      14.05675664
Pd      11.04872676      10.86067670      13.80768690
Pd      12.19229418       6.62163507      16.50795233
Pd       9.26112932       9.60429467      17.21698715
Pd       2.23307320      12.86882200      16.61335480
Pd       1.16117573       6.46059216      16.35939132
Pd      12.13279292       9.36530645      16.26565276
Pd       7.43308939       1.72188560      18.04869874
Pd       5.16600630       0.66060329      16.83549487
Pd       6.78491154      10.30963567      16.31033520
Pd       4.64316704      11.85845913      16.14963757
Pd      10.94648338      12.39139920      15.89515979
Pd      13.50209440       4.09590916      16.25970438
Pd       3.21443241       4.22490158      16.30207574
Pd      10.01886949       3.83188077      16.67329761
Pd       2.91776413       9.72443894      16.42413486
Pd       7.13738039       7.19154793      16.82264763
Pd       7.47366170      12.88679332      16.89422683
Pd       9.63875890       7.09601387      15.95827332
Pd       6.74585846       3.82641663      16.62876572
Pd       1.19075354       1.64614076      15.91395010
Pd       3.88704217       6.92994494      15.99878613
O        8.33350414       3.47529767      17.72296962
O       10.88365267      10.65157776      17.01447372
O       12.91584532      12.54885697      15.62785116
O        9.97283235       1.91662279      15.88462384
O        8.66215569       1.57617861      15.53113825
O        3.96838065       8.38825509      17.24817481
O        4.33453129       1.19769452      15.12437425
O        2.45843604       1.81553374      17.44966617
O        8.91231802      12.41153707      15.60387817
O        1.65183072      11.14465935      15.76474298
O        3.11941540       0.60153869      17.64099043
O        1.47759553       4.63301694      17.06861399
O        6.97343314       5.61920042      15.62785036
O        7.50790232       8.90615933      17.73057543
O        5.04150685       3.93403156      15.60090654
O       11.65326162       3.88991806      15.51310123
O       10.50497595       5.73060021      17.17668851
O       13.62299761       8.00434885      16.02847898
O        6.37844069       0.05977960      18.27490932
O        6.79299023       8.50638315      15.26778452
