115
Lattice="13.75323 0.0 0.0 0.0 13.75323 0.0 0.0 0.0 23.89" Properties=species:S:1:pos:R:3 trial_index=1 seed_entry_id=0 discovered_entry_id=1 energy=-572.2733154296875 status=accepted pbc="T T F"
Pd       0.00000000       0.00000000      10.00000000
Pd       2.75064538       0.00000000      10.00000000
Pd       5.50129076       0.00000000      10.00000000
Pd       8.25193614       0.00000000      10.00000000
Pd      11.00258152       0.00000000      10.00000000
Pd       0.00000000       2.75064538      10.00000000
Pd       2.75064538       2.75064538      10.00000000
Pd       5.50129076       2.75064538      10.00000000
Pd       8.25193614       2.75064538      10.00000000
Pd      11.00258152       2.75064538      10.00000000
Pd       0.00000000       5.50129076      10.00000000
Pd       2.75064538       5.50129076      10.00000000
Pd       5.50129076       5.50129076      10.00000000
Pd       8.25193614       5.50129076      10.00000000
Pd      11.00258152       5.50129076      10.00000000
Pd       0.00000000       8.25193614      10.00000000
Pd       2.75064538       8.25193614      10.00000000
Pd       5.50129076       8.25193614      10.00000000
Pd       8.25193614       8.25193614      10.00000000
Pd      11.00258152       8.25193614      10.00000000
Pd       0.00000000      11.00258152      10.00000000
Pd       2.75064538      11.00258152      10.00000000
Pd       5.50129076      11.00258152      10.00000000
Pd       8.25193614      11.00258152      10.00000000
Pd      11.00258152      11.00258152      10.00000000
Pd       1.34069257       1.43644742      11.96848103
Pd       4.09032242       1.38243977      11.90243352
Pd       6.84120912       1.36738544      11.93155545
Pd       9.57512057       1.39592898      11.89594876
Pd      12.38684272       1.37174114      11.92044161
Pd       1.34426841       4.16031739      12.03977194
Pd       4.06464209       4.14244693      11.97707790
Pd       6.81981241       4.12437208      11.97644283
Pd       9.56728621       4.13975942      11.94281254
Pd      12.36578195       4.13265160      11.93417299
Pd       1.37110082       6.89256210      11.94010419
Pd       4.13935064       6.87026939      11.96482277
Pd       6.87097415       6.85831372      11.95140951
Pd       9.64205429       6.82915781      11.94515418
Pd      12.39111484       6.85622887      11.94896407
Pd       1.38477212       9.65835444      11.96289054
Pd       4.11777592       9.66324146      11.95099537
Pd       6.89476706       9.64088005      11.95142944
Pd       9.64982872       9.59779534      11.89439304
Pd      12.42487279       9.60955999      11.94161946
Pd       1.36927564      12.41964396      11.97969245
Pd       4.13290616      12.37947822      11.94247772
Pd       6.86816975      12.39901143      11.97280504
Pd       9.63028672      12.36702810      11.91406436
Pd      12.38005303      12.38104369      12.01258537
Pd      13.68585511       0.05870483      13.97218831
Pd       2.70298899       0.07585948      13.92204460
Pd       5.45943561      13.64931901      14.01409196
Pd       8.22350386       0.12251964      13.83826439
Pd      10.94280469      13.62057269      14.14617100
Pd      10.88819719       2.62755341      14.02541424
Pd      13.61801471       2.80359189      14.03131793
Pd       2.61438795       2.84499214      14.09675225
Pd       5.44355171       2.68348579      13.88733240
Pd       8.17122783       2.81039328      13.96610857
Pd      13.71296630       5.53973289      14.06307065
Pd       2.66872818       5.58960635      14.03599085
Pd       5.56475755       5.43941864      14.00586555
Pd       8.27347047       5.46773396      13.98825493
Pd      11.00321024       5.43009282      13.95075650
Pd       0.01981218       8.26187424      13.96258852
Pd       2.80772660       8.35133550      13.92248672
Pd       5.51570128       8.22442758      13.96487856
Pd       8.28330712       8.18300430      13.94494197
Pd      11.02854615       8.21777316      14.02815144
Pd       0.07234704      11.00330209      14.04602742
Pd       2.87840545      11.10394311      13.94123488
Pd       5.58746990      10.93172744      13.98292255
Pd       8.32277060      11.13385092      13.86109342
Pd      11.11009763      10.93200484      13.94891601
Pd      12.47868728       6.83940120      16.31494366
Pd       9.79706695      10.28220510      16.20829225
Pd       2.21862445      12.66184278      16.41125597
Pd       1.58574877       7.28705579      15.98580549
Pd      12.55404951       9.55428846      16.08426603
Pd       8.58664446       1.50840146      16.47066090
Pd       4.84396123       0.88105406      16.86318395
Pd       6.39357841       9.51670080      16.34969433
Pd       4.72708559      12.00230400      16.24088189
Pd      12.56034367      12.36933987      16.21247899
Pd       0.61410784       4.47715332      16.52969011
Pd       3.34369037       4.25160060      16.86663672
Pd       9.32176154       4.63787333      16.54973771
Pd       3.13248860       9.83815012      16.37292808
Pd       6.94150683       6.67147825      16.00875474
Pd       7.25161311      12.52244160      15.95199558
Pd       9.50518830       7.39978184      16.41256947
Pd       6.55751262       3.89089643      16.00714997
Pd       1.24270411       1.63021853      16.71077461
Pd       4.34729268       7.31933930      16.34402320
O        8.03854131       3.27607084      17.20928814
O       11.42578560      10.97856585      16.98949768
O        0.31945602      13.65771353      15.98141515
O       10.81586256       3.25906694      16.88145842
O       10.53170969       2.17340712      16.12655381
O        4.68757102       9.02285076      17.25803738
O        4.03634844       1.44864699      14.80232888
O        1.91031762       3.18333331      17.71786082
O        9.24594690      13.59398866      15.61431645
O        1.63194797      10.93701991      15.63096945
O        2.87079654       0.54843900      17.27229703
O        1.92671372       5.74944130      17.24382125
O        4.15361410       5.53894040      15.53965145
O        7.78346130       8.01810519      17.21104336
O        4.94445203       3.03323257      16.94581047
O       13.47923875       2.78060498      16.03341442
O       10.79087027       5.87988175      15.95984607
O        0.02094624       8.14847221      16.93708489
O        6.82199602       0.50205001      16.92655043
O        8.09876653       9.77811951      15.34645381
