115
Lattice="13.75323 0.0 0.0 0.0 13.75323 0.0 0.0 0.0 23.89" Properties=species:S:1:pos:R:3 trial_index=8 seed_entry_id=7 discovered_entry_id=8 energy=-572.9844970703125 status=accepted pbc="T T F"
Pd       0.00000000       0.00000000      10.00000000
Pd       2.75064538       0.00000000      10.00000000
Pd       5.50129076       0.00000000      10.00000000
Pd       8.25193614       0.00000000      10.00000000
Pd      11.00258152       0.00000000      10.00000000
Pd       0.00000000       2.75064538      10.00000000
Pd       2.75064538       2.75064538      10.00000000
Pd       5.50129076       2.75064538      10.00000000
Pd       8.25193614       2.75064538      10.00000000
Pd      11.00258152       2.75064538      10.00000000
Pd       0.00000000       5.50129076      10.00000000
Pd       2.75064538       5.50129076      10.00000000
Pd       5.50129076       5.50129076      10.00000000
Pd       8.25193614       5.50129076      10.00000000
Pd      11.00258152       5.50129076      10.00000000
Pd       0.00000000       8.25193614      10.00000000
Pd       2.75064538       8.25193614      10.00000000
Pd       5.50129076       8.25193614      10.00000000
Pd       8.25193614       8.25193614      10.00000000
Pd      11.00258152       8.25193614      10.00000000
Pd       0.00000000      11.00258152      10.00000000
Pd       2.75064538      11.00258152      10.00000000
Pd       5.50129076      11.00258152      10.00000000
Pd       8.25193614      11.00258152      10.00000000
Pd      11.00258152      11.00258152      10.00000000
Pd       1.38874758       1.39973076      11.96558166
Pd       4.11225532       1.39092906      12.00924735
Pd       6.81632645       1.38864668      12.03373262
Pd       9.57512057       1.39592898      11.89594876
Pd      12.38684272       1.37174114      11.92044161
Pd       1.35655709       4.15979085      11.96967806
Pd       4.09206077       4.10882076      11.99262918
Pd       6.81085394       4.11212226      11.99398204
Pd       9.56728621       4.13975942      11.94281254
Pd      12.36578195       4.13265160      11.93417299
Pd       1.37110082       6.89256210      11.94010419
Pd       4.13935064       6.87026939      11.96482277
Pd       6.87097415       6.85831372      11.95140951
Pd       9.64205429       6.82915781      11.94515418
Pd      12.39111484       6.85622887      11.94896407
Pd       1.38124602       9.65130914      11.96989431
Pd       4.11777592       9.66324146      11.95099537
Pd       6.89476706       9.64088005      11.95142944
Pd       9.64982872       9.59779534      11.89439304
Pd      12.42487279       9.60955999      11.94161946
Pd       1.38227237      12.40032868      11.97153402
Pd       4.11622132      12.43529079      11.97893877
Pd       6.86816975      12.39901143      11.97280504
Pd       9.63028672      12.36702810      11.91406436
Pd      12.38846716      12.32958915      11.98070435
Pd      13.74685997       0.04346689      13.85760914
Pd       2.79795452       0.09791057      14.08325612
Pd       5.53063078      13.71052774      14.04749819
Pd       8.27872188       0.00251006      13.98205293
Pd      11.00847574      13.69986635      13.94556958
Pd       7.77651872       2.81152414      14.22757148
Pd      11.25253113       2.65660857      14.74671737
Pd      13.72463690       2.83711313      13.90527171
Pd       2.60142112       2.82241381      14.00831989
Pd       5.20730881       2.68456782      14.20609622
Pd      13.72267195       5.56672941      13.99381926
Pd       2.69107059       5.56004293      13.98275749
Pd       5.49021409       5.49110510      13.94341962
Pd       8.22149137       5.51332137      14.02311760
Pd      10.95734428       5.47953295      13.94301114
Pd       0.03761543       8.28328750      13.95139419
Pd       2.84282335       8.31839160      13.92987227
Pd       5.58942946       8.26335589      13.99543063
Pd       8.35616574       8.25736299      13.93609179
Pd      11.08415152       8.24755366      13.95323925
Pd      13.75238831      10.97885340      14.07651930
Pd       2.76450612      11.05285521      13.92347660
Pd       5.48983529      10.98379469      13.89230845
Pd       8.24778587      10.98330621      13.90781404
Pd      10.98610229      10.94740540      13.99736850
Pd      12.26608252       6.56493468      16.26457805
Pd       9.43784478      10.72557537      16.40957731
Pd       1.59582537      12.37476791      16.16793961
Pd       1.52339883       7.20270370      15.91183224
Pd      12.34692594       9.39678521      16.38835985
Pd       8.06778806       1.70453087      16.73299098
Pd       4.44671350       0.80137276      16.55524111
Pd       5.89476041       9.81535629      16.38939797
Pd       4.24915434      11.97393250      16.04471661
Pd      12.12897816      12.32694553      16.17434645
Pd       0.23719455       4.47151663      16.51078898
Pd       3.08058359       4.17661779      16.57581555
Pd       9.30352828       4.70644331      16.90523115
Pd       2.53929760       9.75930368      16.39870671
Pd       7.03246356       7.06136014      15.97727658
Pd       6.81030494      12.67044247      16.42211263
Pd       9.86724969       8.05685182      16.28706270
Pd       6.22389877       4.42726479      16.44967668
Pd       0.76043677       1.59547020      16.34415202
Pd       4.31752477       7.31297958      16.32033737
O        7.69597675       3.57583395      17.43255377
O       11.21840723      10.87928004      17.08976539
O       13.55218452      13.65081020      15.86817054
O       10.37045317       3.10733436      17.45998643
O       10.07490250       2.12441900      16.56296122
O        4.23702199       9.07819065      17.11087947
O        9.67933520       2.69872942      13.56205832
O        1.59581757       3.08379414      17.30326885
O        8.55861240      13.70287746      15.98064095
O        0.77216024      10.57349271      16.03890300
O        2.46843625       0.45679592      16.25686869
O        1.72335257       5.62100618      17.13603240
O        4.52729173       5.40709186      15.85727422
O        8.66081988       6.62300023      17.02204560
O        4.59928659       2.84799053      16.25149379
O       12.90425721       2.82965615      15.92491493
O       10.98047843       5.15888177      15.92810040
O       13.56328747       7.88764084      16.82591963
O        6.30679772       0.68322022      17.16694310
O        7.53627038      10.85381518      15.90607784
