115
Lattice="13.75323 0.0 0.0 0.0 13.75323 0.0 0.0 0.0 23.89" Properties=species:S:1:pos:R:3 trial_index=5 seed_entry_id=4 discovered_entry_id=5 energy=-573.0182495117188 status=accepted pbc="T T F"
Pd       0.00000000       0.00000000      10.00000000
Pd       2.75064538       0.00000000      10.00000000
Pd       5.50129076       0.00000000      10.00000000
Pd       8.25193614       0.00000000      10.00000000
Pd      11.00258152       0.00000000      10.00000000
Pd       0.00000000       2.75064538      10.00000000
Pd       2.75064538       2.75064538      10.00000000
Pd       5.50129076       2.75064538      10.00000000
Pd       8.25193614       2.75064538      10.00000000
Pd      11.00258152       2.75064538      10.00000000
Pd       0.00000000       5.50129076      10.00000000
Pd       2.75064538       5.50129076      10.00000000
Pd       5.50129076       5.50129076      10.00000000
Pd       8.25193614       5.50129076      10.00000000
Pd      11.00258152       5.50129076      10.00000000
Pd       0.00000000       8.25193614      10.00000000
Pd       2.75064538       8.25193614      10.00000000
Pd       5.50129076       8.25193614      10.00000000
Pd       8.25193614       8.25193614      10.00000000
Pd      11.00258152       8.25193614      10.00000000
Pd       0.00000000      11.00258152      10.00000000
Pd       2.75064538      11.00258152      10.00000000
Pd       5.50129076      11.00258152      10.00000000
Pd       8.25193614      11.00258152      10.00000000
Pd      11.00258152      11.00258152      10.00000000
Pd       1.39136201       1.39535210      11.96950733
Pd       4.11343168       1.39806521      12.01313916
Pd       6.81570417       1.39251816      12.02252178
Pd       9.57512057       1.39592898      11.89594876
Pd      12.38684272       1.37174114      11.92044161
Pd       1.36878484       4.14641406      11.97301696
Pd       4.09020197       4.10940621      12.00014982
Pd       6.80357058       4.11831711      11.99321967
Pd       9.56728621       4.13975942      11.94281254
Pd      12.36578195       4.13265160      11.93417299
Pd       1.37110082       6.89256210      11.94010419
Pd       4.13935064       6.87026939      11.96482277
Pd       6.87097415       6.85831372      11.95140951
Pd       9.64205429       6.82915781      11.94515418
Pd      12.39111484       6.85622887      11.94896407
Pd       1.37677302       9.64388669      11.96739336
Pd       4.11777592       9.66324146      11.95099537
Pd       6.89476706       9.64088005      11.95142944
Pd       9.64982872       9.59779534      11.89439304
Pd      12.42487279       9.60955999      11.94161946
Pd       1.37168605      12.39794540      11.96259149
Pd       4.11971360      12.42640556      11.96038099
Pd       6.86816975      12.39901143      11.97280504
Pd       9.63028672      12.36702810      11.91406436
Pd      12.38452165      12.33529317      11.98707743
Pd       0.01158734       0.04300100      13.88301102
Pd       2.78694090       0.04932349      14.05248761
Pd       5.50436800      13.75186447      14.02891668
Pd       8.27476707       0.00407523      13.96497245
Pd      11.01538425      13.71915964      13.94540909
Pd       7.77233296       2.81518179      14.20291818
Pd      11.26294045       2.66695736      14.74871972
Pd      13.74214660       2.82204405      13.90572199
Pd       2.60673726       2.77494392      14.04671835
Pd       5.20504449       2.72493024      14.22349472
Pd      13.73936514       5.55121441      13.97198608
Pd       2.69330448       5.54000759      13.98932278
Pd       5.48968044       5.51810548      13.94771628
Pd       8.21769569       5.51121614      14.02982648
Pd      10.94775363       5.44094818      13.95008810
Pd       0.07094468       8.29570366      13.96709760
Pd       2.87405215       8.33060160      13.92387274
Pd       5.59865819       8.28245076      14.00284889
Pd       8.34491255       8.25139128      13.91897039
Pd      11.06390348       8.26059793      13.92636982
Pd      13.74584047      11.00574649      14.08295646
Pd       2.75310591      11.06147702      13.90989111
Pd       5.49129848      10.99955172      13.88400299
Pd       8.26507180      10.97280283      13.90428945
Pd      10.99423390      10.96961317      14.02757233
Pd      12.21908127       6.69221546      16.06803511
Pd       9.43509861      10.87839142      16.46667004
Pd       1.67369097      12.53248468      16.34813009
Pd       1.69394619       7.27199726      15.98975643
Pd      12.23095133       9.64727699      16.42192625
Pd       8.06495729       1.75900504      16.69409555
Pd       4.30898482       0.88140548      16.58983207
Pd       5.91817534       9.87014422      16.39030722
Pd       4.25099015      12.07097028      15.98808078
Pd      12.12599932      12.47105275      16.23005199
Pd       0.21386007       4.57505427      16.51832563
Pd       3.03127473       4.25192044      16.62734780
Pd       9.30747590       4.77007322      16.90083592
Pd       2.61344556       9.85928683      16.39430021
Pd       7.05010445       7.08696348      15.98235600
Pd       6.80229332      12.72477856      16.33940470
Pd       9.83966890       8.19860106      16.28600814
Pd       6.20117028       4.46837481      16.43673200
Pd       0.77573221       1.65893719      16.48268679
Pd       4.35735190       7.34915104      16.36019539
O        7.69184420       3.62743995      17.39180197
O       11.17791315      11.09015372      17.23480554
O       13.62313884      13.71476957      15.90154834
O       10.36294357       3.16180051      17.46473814
O       10.07475602       2.17557486      16.57408956
O        4.27479220       9.12366716      17.13581535
O        9.68539143       2.69347178      13.56743035
O        1.52648006       3.21005314      17.39417093
O        8.57456610      13.75082707      15.96433981
O        0.90105506      10.75209059      15.97244691
O        2.37403498       0.52615171      16.96587988
O        1.68657334       5.71362541      17.21036965
O        4.49948824       5.44862446      15.86657078
O        8.70211416       6.70032750      17.00464944
O        4.51118423       2.90049840      16.25678023
O       12.95314334       2.88489467      15.87448602
O       11.00544906       5.19909800      15.96503752
O       13.49636119       8.16400805      16.06619377
O        6.25111775       0.74855412      16.98053985
O        7.55265470      10.90322916      15.88997884
