115
Lattice="13.75323 0.0 0.0 0.0 13.75323 0.0 0.0 0.0 23.89" Properties=species:S:1:pos:R:3 trial_index=3 seed_entry_id=2 discovered_entry_id=3 energy=-572.888427734375 status=accepted pbc="T T F"
Pd       0.00000000       0.00000000      10.00000000
Pd       2.75064538       0.00000000      10.00000000
Pd       5.50129076       0.00000000      10.00000000
Pd       8.25193614       0.00000000      10.00000000
Pd      11.00258152       0.00000000      10.00000000
Pd       0.00000000       2.75064538      10.00000000
Pd       2.75064538       2.75064538      10.00000000
Pd       5.50129076       2.75064538      10.00000000
Pd       8.25193614       2.75064538      10.00000000
Pd      11.00258152       2.75064538      10.00000000
Pd       0.00000000       5.50129076      10.00000000
Pd       2.75064538       5.50129076      10.00000000
Pd       5.50129076       5.50129076      10.00000000
Pd       8.25193614       5.50129076      10.00000000
Pd      11.00258152       5.50129076      10.00000000
Pd       0.00000000       8.25193614      10.00000000
Pd       2.75064538       8.25193614      10.00000000
Pd       5.50129076       8.25193614      10.00000000
Pd       8.25193614       8.25193614      10.00000000
Pd      11.00258152       8.25193614      10.00000000
Pd       0.00000000      11.00258152      10.00000000
Pd       2.75064538      11.00258152      10.00000000
Pd       5.50129076      11.00258152      10.00000000
Pd       8.25193614      11.00258152      10.00000000
Pd      11.00258152      11.00258152      10.00000000
Pd       1.38863943       1.41759081      11.98356639
Pd       4.11742138       1.39617547      12.01297041
Pd       6.81409230       1.39105028      12.03452528
Pd       9.57512057       1.39592898      11.89594876
Pd      12.38684272       1.37174114      11.92044161
Pd       1.37590905       4.15997755      11.99066090
Pd       4.10050457       4.11760961      11.99956308
Pd       6.82665663       4.11346484      12.00721958
Pd       9.56728621       4.13975942      11.94281254
Pd      12.36578195       4.13265160      11.93417299
Pd       1.37110082       6.89256210      11.94010419
Pd       4.13935064       6.87026939      11.96482277
Pd       6.87097415       6.85831372      11.95140951
Pd       9.64205429       6.82915781      11.94515418
Pd      12.39111484       6.85622887      11.94896407
Pd       1.38823600       9.65239317      11.95711999
Pd       4.11777592       9.66324146      11.95099537
Pd       6.89476706       9.64088005      11.95142944
Pd       9.64982872       9.59779534      11.89439304
Pd      12.42487279       9.60955999      11.94161946
Pd       1.36916613      12.41882096      11.96381421
Pd       4.11558079      12.41204212      11.97849406
Pd       6.86816975      12.39901143      11.97280504
Pd       9.63028672      12.36702810      11.91406436
Pd      12.37578323      12.35134443      11.98354678
Pd      13.72424545       0.07768135      13.91227187
Pd       2.76107420       0.07659638      14.04035616
Pd       5.46287025      13.73902006      14.05772903
Pd       8.20409845      13.71261463      13.99111149
Pd      10.97752008      13.57809495      14.02763163
Pd       8.06714863       2.83337215      14.09185885
Pd      11.38277701       2.43496058      14.92369451
Pd       0.03379088       2.85945338      13.92850166
Pd       2.70807269       2.79116784      14.05207077
Pd       5.39333213       2.74017586      14.17021061
Pd      13.71025456       5.58667319      14.00649897
Pd       2.67512324       5.56147921      14.01614428
Pd       5.50364972       5.54139772      13.92795564
Pd       8.25071631       5.51740466      14.02730742
Pd      10.96055738       5.29721834      13.98321907
Pd       0.03466985       8.29083169      13.93790951
Pd       2.84506106       8.30108442      13.92916043
Pd       5.57433150       8.29391051      14.01529137
Pd       8.32357187       8.26340585      13.91515607
Pd      11.04745698       8.14332120      13.88876005
Pd      13.71110092      11.02555210      14.00658024
Pd       2.77704342      11.06968120      13.93216477
Pd       5.51904202      10.99157096      13.91137511
Pd       8.26521488      10.97269290      13.93320323
Pd      10.99334189      10.90310140      13.99479916
Pd      12.30288022       6.71651019      16.30676923
Pd       9.62338724      10.79043464      16.46627850
Pd       1.83923186      12.60177137      16.36453112
Pd       1.49929004       7.34027481      15.97952023
Pd      12.32208400       9.46508384      15.92932020
Pd       8.10640616       1.77033080      16.68845226
Pd       4.32443654       0.88270540      16.65222944
Pd       6.07449811       9.83815711      16.44949660
Pd       4.36692371      12.04798268      16.06647749
Pd      12.36412235      12.29294115      16.28209674
Pd       0.29495883       4.61214400      16.54596758
Pd       3.07110832       4.25528411      16.61075191
Pd       9.35585776       4.75240468      16.87506795
Pd       2.87951251       9.79080411      16.37016768
Pd       7.03994144       7.07694901      15.97318061
Pd       6.88566095      12.70876402      16.36904491
Pd       9.83250453       8.10328841      16.24187822
Pd       6.22354939       4.45395733      16.39036858
Pd       0.83969127       1.66175778      16.55794131
Pd       4.37437393       7.32215612      16.37051621
O        7.72487108       3.63595150      17.35610158
O       11.42189788      10.83269514      17.15606262
O       13.73462185      13.67717349      15.93994690
O       10.41655441       3.18588186      17.53845487
O       10.14460655       2.14903301      16.70696287
O        4.45950487       9.05152606      17.24606870
O        9.82970559       1.74675463      13.96273485
O        1.57909784       3.23782487      17.43852179
O        8.61582700      13.75186491      15.99729453
O        1.37653688      10.84224878      15.60013581
O        2.41203098       0.55693155      17.14832560
O        1.77053312       5.76373894      17.20014574
O        4.50965495       5.43410034      15.82218590
O        8.67629419       6.65076428      17.00350373
O        4.51831604       2.87174482      16.16732828
O       13.06277492       2.90493114      15.92290776
O       11.05904595       5.26784380      15.98573396
O       13.54624213       8.10861732      16.86152421
O        6.27817638       0.73885803      16.94126958
O        7.70756245      10.90415518      15.96259827
