115
Lattice="13.75323 0.0 0.0 0.0 13.75323 0.0 0.0 0.0 23.89" Properties=species:S:1:pos:R:3 trial_index=2 seed_entry_id=1 discovered_entry_id=2 energy=-572.3714599609375 status=accepted pbc="T T F"
Pd       0.00000000       0.00000000      10.00000000
Pd       2.75064538       0.00000000      10.00000000
Pd       5.50129076       0.00000000      10.00000000
Pd       8.25193614       0.00000000      10.00000000
Pd      11.00258152       0.00000000      10.00000000
Pd       0.00000000       2.75064538      10.00000000
Pd       2.75064538       2.75064538      10.00000000
Pd       5.50129076       2.75064538      10.00000000
Pd       8.25193614       2.75064538      10.00000000
Pd      11.00258152       2.75064538      10.00000000
Pd       0.00000000       5.50129076      10.00000000
Pd       2.75064538       5.50129076      10.00000000
Pd       5.50129076       5.50129076      10.00000000
Pd       8.25193614       5.50129076      10.00000000
Pd      11.00258152       5.50129076      10.00000000
Pd       0.00000000       8.25193614      10.00000000
Pd       2.75064538       8.25193614      10.00000000
Pd       5.50129076       8.25193614      10.00000000
Pd       8.25193614       8.25193614      10.00000000
Pd      11.00258152       8.25193614      10.00000000
Pd       0.00000000      11.00258152      10.00000000
Pd       2.75064538      11.00258152      10.00000000
Pd       5.50129076      11.00258152      10.00000000
Pd       8.25193614      11.00258152      10.00000000
Pd      11.00258152      11.00258152      10.00000000
Pd       1.38780795       1.44876139      11.98875184
Pd       4.11040977       1.40241754      12.00429619
Pd       6.79981624       1.38564943      11.98310007
Pd       9.57512057       1.39592898      11.89594876
Pd      12.38684272       1.37174114      11.92044161
Pd       1.35888446       4.16019864      11.99313519
Pd       4.09071626       4.08815968      11.99679929
Pd       6.83912384       4.13784439      11.90745905
Pd       9.56728621       4.13975942      11.94281254
Pd      12.36578195       4.13265160      11.93417299
Pd       1.37110082       6.89256210      11.94010419
Pd       4.13935064       6.87026939      11.96482277
Pd       6.87097415       6.85831372      11.95140951
Pd       9.64205429       6.82915781      11.94515418
Pd      12.39111484       6.85622887      11.94896407
Pd       1.38067868       9.66264178      11.96181545
Pd       4.11777592       9.66324146      11.95099537
Pd       6.89476706       9.64088005      11.95142944
Pd       9.64982872       9.59779534      11.89439304
Pd      12.42487279       9.60955999      11.94161946
Pd       1.36671003      12.45964559      11.98342589
Pd       4.12873373      12.44993185      12.02771023
Pd       6.86816975      12.39901143      11.97280504
Pd       9.63028672      12.36702810      11.91406436
Pd      12.37899501      12.37329726      11.99171285
Pd       0.03048051       0.23942074      13.96025696
Pd       2.75074845       0.17892899      14.09108039
Pd       5.48580370       0.17988698      14.11855865
Pd       8.37810375      13.36933823      14.08131409
Pd      11.07465119       0.06995824      13.95989448
Pd       6.82227483       2.96886627      14.31663266
Pd       9.92786305       2.83627787      14.27356291
Pd      12.58862397       2.81233978      14.24907216
Pd       1.50515213       2.86010029      14.35821464
Pd       4.14014304       2.70852500      14.37042475
Pd      13.74709375       5.45118464      14.04818176
Pd       2.72494362       5.44559369      14.04452150
Pd       5.51405119       5.45419805      13.90291059
Pd       8.24080284       5.35886788      14.01069594
Pd      10.98796806       5.35724591      14.00419108
Pd      13.74107098       8.25352012      13.92207126
Pd       2.78600637       8.26343293      13.93115418
Pd       5.51089655       8.28561294      13.99539986
Pd       8.26961912       8.11462380      13.91453206
Pd      10.99887279       8.20627699      13.87138503
Pd      13.65968937      11.05950735      13.98383743
Pd       2.73911893      11.08481205      13.91045423
Pd       5.50586450      11.03878526      13.92477936
Pd       8.23242289      10.76383638      14.01960767
Pd      10.93535501      11.02950865      14.00284808
Pd      12.18734966       6.75263037      16.30362099
Pd       9.56490265      10.73906493      16.51965991
Pd       1.64497112      12.63001469      16.41204716
Pd       1.38418793       7.30722402      15.98345873
Pd      12.25823284       9.49859297      15.87489523
Pd       7.77020704       1.74546471      16.61481706
Pd       3.95648360       0.79787852      16.74050136
Pd       5.94733738       9.76320227      16.45209675
Pd       4.17210144      12.02419562      16.02994605
Pd      12.25120873      12.30565135      16.29342057
Pd      13.74131244       4.55612906      16.70691602
Pd       2.72423729       4.25830869      16.85725869
Pd       9.15466763       4.76197433      16.80669821
Pd       2.74777616       9.77552936      16.34101563
Pd       6.86532097       6.94185803      15.90652535
Pd       6.70258294      12.57138940      16.24767019
Pd       9.74256716       8.07193406      16.21354268
Pd       5.85512334       4.44402750      16.44337418
Pd       0.55276499       1.68136622      16.81904401
Pd       4.18001624       7.26943798      16.35403504
O        7.46241604       3.66106374      17.25748326
O       11.37497998      10.81172232      17.17495395
O       13.54645299      13.74953737      15.96839768
O       10.15761222       3.08972631      17.22181424
O        9.74734351       2.15137207      16.33900891
O        4.31029218       9.00065991      17.21221511
O        8.30460979       1.65460195      13.66549364
O        1.26404836       3.24928348      17.76487533
O        8.38675318      13.69316507      16.10142706
O        1.30438066      10.88671059      15.54840786
O        2.10851846       0.52732490      17.38281493
O        1.43506510       5.78206175      17.29906485
O        4.09943654       5.37036960      15.86053046
O        8.51606386       6.65763683      16.96461262
O        4.10837922       2.84693782      16.46754924
O       12.77777287       2.87265703      16.24197824
O       10.91413704       5.31892790      16.01779543
O       13.44862314       8.13740670      16.83763748
O        5.89741094       0.66901996      16.29029635
O        7.63283390      10.79273913      16.06422826
