115
Lattice="13.75323 0.0 0.0 0.0 13.75323 0.0 0.0 0.0 23.89" Properties=species:S:1:pos:R:3 trial_index=12 seed_entry_id=9 discovered_entry_id=11 energy=-572.9630126953125 status=accepted pbc="T T F"
Pd       0.00000000       0.00000000      10.00000000
Pd       2.75064538       0.00000000      10.00000000
Pd       5.50129076       0.00000000      10.00000000
Pd       8.25193614       0.00000000      10.00000000
Pd      11.00258152       0.00000000      10.00000000
Pd       0.00000000       2.75064538      10.00000000
Pd       2.75064538       2.75064538      10.00000000
Pd       5.50129076       2.75064538      10.00000000
Pd       8.25193614       2.75064538      10.00000000
Pd      11.00258152       2.75064538      10.00000000
Pd       0.00000000       5.50129076      10.00000000
Pd       2.75064538       5.50129076      10.00000000
Pd       5.50129076       5.50129076      10.00000000
Pd       8.25193614       5.50129076      10.00000000
Pd      11.00258152       5.50129076      10.00000000
Pd       0.00000000       8.25193614      10.00000000
Pd       2.75064538       8.25193614      10.00000000
Pd       5.50129076       8.25193614      10.00000000
Pd       8.25193614       8.25193614      10.00000000
Pd      11.00258152       8.25193614      10.00000000
Pd       0.00000000      11.00258152      10.00000000
Pd       2.75064538      11.00258152      10.00000000
Pd       5.50129076      11.00258152      10.00000000
Pd       8.25193614      11.00258152      10.00000000
Pd      11.00258152      11.00258152      10.00000000
Pd       1.38361666       1.41977018      11.99010269
Pd       4.09620865       1.40233478      11.99782108
Pd       6.82615968       1.38166517      11.98964535
Pd       9.57512057       1.39592898      11.89594876
Pd      12.38684272       1.37174114      11.92044161
Pd       1.36652708       4.15318183      12.01604006
Pd       4.06906483       4.11996447      12.00285503
Pd       6.80309154       4.11731789      11.97348944
Pd       9.56728621       4.13975942      11.94281254
Pd      12.36578195       4.13265160      11.93417299
Pd       1.37110082       6.89256210      11.94010419
Pd       4.13935064       6.87026939      11.96482277
Pd       6.87097415       6.85831372      11.95140951
Pd       9.64205429       6.82915781      11.94515418
Pd      12.39111484       6.85622887      11.94896407
Pd       1.37092645       9.64817979      11.96701328
Pd       4.11777592       9.66324146      11.95099537
Pd       6.89476706       9.64088005      11.95142944
Pd       9.64982872       9.59779534      11.89439304
Pd      12.42487279       9.60955999      11.94161946
Pd       1.36293610      12.40688453      11.96266959
Pd       4.11596933      12.42288008      11.95134287
Pd       6.86816975      12.39901143      11.97280504
Pd       9.63028672      12.36702810      11.91406436
Pd      12.38623468      12.33604619      11.99101990
Pd      13.74871376       0.05500857      13.89536385
Pd       2.75764230       0.04028830      14.02116705
Pd       5.50615226       0.02579954      13.98407894
Pd       8.28466323      13.74223578      13.97148206
Pd      11.01156672      13.72345557      13.95168852
Pd       7.78447312       2.79422267      14.16868519
Pd      11.22593842       2.65594013      14.77733302
Pd      13.73453850       2.82810146      13.95975002
Pd       2.63211191       2.75631335      14.14523462
Pd       5.26148233       2.75075729      14.09247895
Pd      13.73853753       5.55914722      14.00417848
Pd       2.72211805       5.52446008      14.04937222
Pd       5.52091120       5.51964648      13.93642247
Pd       8.22058134       5.49242943      14.00676021
Pd      10.94887434       5.42653743      13.94363036
Pd       0.02434152       8.30405632      13.95716155
Pd       2.83533121       8.32871670      13.92201440
Pd       5.55277221       8.29083342      13.99314500
Pd       8.29695486       8.23763611      13.92832831
Pd      11.01454604       8.26579119      13.93278019
Pd      13.74696017      11.01628537      14.11058654
Pd       2.74505279      11.05610259      13.90133996
Pd       5.48284836      11.01279075      13.87978561
Pd       8.25897914      10.96150255      13.91227483
Pd      10.99320236      10.98380670      14.02341484
Pd      12.09403289       6.70584896      16.07099869
Pd       9.39255692      10.92105058      16.45467286
Pd       1.68715431      12.63084016      16.39847962
Pd       1.60782484       7.33240490      15.99322664
Pd      12.14787213       9.66577156      16.39544334
Pd       7.93271149       1.77201528      16.67100634
Pd       4.18750056       1.20972102      16.15712392
Pd       5.87958201       9.88683388      16.36658937
Pd       4.20708828      12.17681996      15.92054977
Pd      12.14769321      12.49871826      16.23823527
Pd       0.01536560       4.58345972      16.57323100
Pd       2.79492843       4.29810227      16.88789095
Pd       9.12818492       4.79525847      16.85221960
Pd       2.63322776       9.89758637      16.38910296
Pd       6.91890252       6.96900010      15.92224497
Pd       6.71216205      12.76583792      16.31789793
Pd       9.73458703       8.22458326      16.29109395
Pd       5.89056975       4.37533391      16.42265002
Pd       0.70231218       1.70871755      16.60911593
Pd       4.24466720       7.30883621      16.33712970
O        7.49087390       3.64529443      17.31433082
O       11.14079051      11.13748984      17.20886876
O       13.64002362       0.00075297      15.92014765
O       10.19231257       3.20553193      17.46512536
O        9.94144221       2.20322524      16.58596289
O        4.26872359       9.09007591      17.11077234
O        9.69283095       2.69085250      13.55755985
O        1.28788755       3.26878070      17.64568516
O        8.49407925       0.00649789      15.98786786
O        0.95360403      10.84147388      15.97936858
O        2.35532080       0.63564960      17.02444694
O        1.41230505       5.79822310      17.23706519
O        4.16842549       5.39602425      15.84443228
O        8.56661658       6.73534935      16.98710849
O        4.35027852       3.06305108      17.01694415
O       12.86344927       2.86575146      15.93266884
O       10.86730946       5.21930174      15.96402738
O       13.39578766       8.16518789      16.05261851
O        6.10202389       0.80785169      16.87228572
O        7.50237085      10.94967934      15.89596978
